<?xml version="1.0" encoding="UTF-8"?>

<!-- generated on 2023-05-10 17:01:41 by Eclipse SUMO sumo Version 1.16.0
<configuration xmlns:xsi="http://www.w3.org/2001/XMLSchema-instance" xsi:noNamespaceSchemaLocation="http://sumo.dlr.de/xsd/sumoConfiguration.xsd">

    <input>
        <net-file value="./SUMO_Input/./net/Test4.net.xml"/>
        <route-files value="./SUMO_Input/./route/Test4.rou.xml"/>
        <additional-files value="./SUMO_Input/dets.add.xml"/>
    </input>

    <output>
        <fcd-output value="./SUMO_Input/../SUMO_Output/fcd.xml"/>
        <tripinfo-output value="./SUMO_Input/../SUMO_Output/tripinfos.xml"/>
        <tripinfo-output.write-unfinished value="true"/>
        <statistic-output value="SUMO_Output/statistic.xml"/>
    </output>

    <time>
        <begin value="0"/>
        <end value="10000"/>
    </time>

    <report>
        <duration-log.statistics value="true"/>
    </report>

    <traci_server>
        <remote-port value="51233"/>
    </traci_server>

    <gui_only>
        <gui-settings-file value="./SUMO_Input/Test4.settings.xml"/>
    </gui_only>

</configuration>
-->

<tripinfos xmlns:xsi="http://www.w3.org/2001/XMLSchema-instance" xsi:noNamespaceSchemaLocation="http://sumo.dlr.de/xsd/tripinfo_file.xsd">
    <tripinfo id="3#0.0" depart="0.00" departLane="8_0" departPos="5.10" departSpeed="0.00" departDelay="0.00" arrival="203.00" arrivalLane="6_0" arrivalPos="1136.40" arrivalSpeed="11.36" duration="203.00" routeLength="2294.90" waitingTime="0.00" waitingCount="0" stopTime="0.00" timeLoss="16.10" rerouteNo="0" devices="tripinfo_3#0.0 fcd_3#0.0" vType="DEFAULT_VEHTYPE" speedFactor="1.08" vaporized=""/>
    <tripinfo id="0#0.0" depart="0.00" departLane="1_0" departPos="5.10" departSpeed="0.00" departDelay="0.00" arrival="223.00" arrivalLane="6_0" arrivalPos="1136.40" arrivalSpeed="11.55" duration="223.00" routeLength="2276.73" waitingTime="16.00" waitingCount="1" stopTime="0.00" timeLoss="32.40" rerouteNo="0" devices="tripinfo_0#0.0 fcd_0#0.0" vType="DEFAULT_VEHTYPE" speedFactor="1.06" vaporized=""/>
    <tripinfo id="2#0.0" depart="0.00" departLane="5_0" departPos="5.10" departSpeed="0.00" departDelay="0.00" arrival="223.00" arrivalLane="2_0" arrivalPos="1136.40" arrivalSpeed="11.16" duration="223.00" routeLength="2292.21" waitingTime="5.00" waitingCount="1" stopTime="0.00" timeLoss="22.85" rerouteNo="0" devices="tripinfo_2#0.0 fcd_2#0.0" vType="DEFAULT_VEHTYPE" speedFactor="1.01" vaporized=""/>
    <tripinfo id="0#0.1" depart="9.00" departLane="1_0" departPos="5.10" departSpeed="0.00" departDelay="0.00" arrival="226.00" arrivalLane="3_0" arrivalPos="1136.40" arrivalSpeed="11.68" duration="217.00" routeLength="2294.90" waitingTime="3.00" waitingCount="1" stopTime="0.00" timeLoss="20.69" rerouteNo="0" devices="tripinfo_0#0.1 fcd_0#0.1" vType="DEFAULT_VEHTYPE" speedFactor="1.03" vaporized=""/>
    <tripinfo id="0#0.3" depart="27.00" departLane="1_0" departPos="5.10" departSpeed="0.00" departDelay="0.00" arrival="226.00" arrivalLane="3_1" arrivalPos="1136.40" arrivalSpeed="11.76" duration="199.00" routeLength="2294.90" waitingTime="0.00" waitingCount="0" stopTime="0.00" timeLoss="13.15" rerouteNo="0" devices="tripinfo_0#0.3 fcd_0#0.3" vType="DEFAULT_VEHTYPE" speedFactor="1.09" vaporized=""/>
    <tripinfo id="0#0.2" depart="18.00" departLane="1_0" departPos="5.10" departSpeed="0.00" departDelay="0.00" arrival="227.00" arrivalLane="6_0" arrivalPos="1136.40" arrivalSpeed="11.76" duration="209.00" routeLength="2276.73" waitingTime="0.00" waitingCount="0" stopTime="0.00" timeLoss="15.98" rerouteNo="0" devices="tripinfo_0#0.2 fcd_0#0.2" vType="DEFAULT_VEHTYPE" speedFactor="1.05" vaporized=""/>
    <tripinfo id="1#0.3" depart="27.00" departLane="4_0" departPos="5.10" departSpeed="0.00" departDelay="0.00" arrival="237.00" arrivalLane="2_0" arrivalPos="1136.40" arrivalSpeed="10.81" duration="210.00" routeLength="2294.90" waitingTime="0.00" waitingCount="0" stopTime="0.00" timeLoss="12.91" rerouteNo="0" devices="tripinfo_1#0.3 fcd_1#0.3" vType="DEFAULT_VEHTYPE" speedFactor="1.03" vaporized=""/>
    <tripinfo id="1#0.0" depart="0.00" departLane="4_0" departPos="5.10" departSpeed="0.00" departDelay="0.00" arrival="257.00" arrivalLane="6_0" arrivalPos="1136.40" arrivalSpeed="10.56" duration="257.00" routeLength="2292.21" waitingTime="20.00" waitingCount="1" stopTime="0.00" timeLoss="41.13" rerouteNo="0" devices="tripinfo_1#0.0 fcd_1#0.0" vType="DEFAULT_VEHTYPE" speedFactor="0.94" vaporized=""/>
    <tripinfo id="2#0.2" depart="36.00" departLane="5_0" departPos="5.10" departSpeed="0.00" departDelay="0.00" arrival="261.00" arrivalLane="7_0" arrivalPos="1136.40" arrivalSpeed="10.54" duration="225.00" routeLength="2294.90" waitingTime="1.00" waitingCount="1" stopTime="0.00" timeLoss="20.69" rerouteNo="0" devices="tripinfo_2#0.2 fcd_2#0.2" vType="DEFAULT_VEHTYPE" speedFactor="0.99" vaporized=""/>
    <tripinfo id="2#0.1" depart="18.00" departLane="5_0" departPos="5.10" departSpeed="0.00" departDelay="0.00" arrival="265.00" arrivalLane="7_0" arrivalPos="1136.40" arrivalSpeed="9.61" duration="247.00" routeLength="2294.90" waitingTime="11.00" waitingCount="1" stopTime="0.00" timeLoss="31.18" rerouteNo="0" devices="tripinfo_2#0.1 fcd_2#0.1" vType="DEFAULT_VEHTYPE" speedFactor="0.94" vaporized=""/>
    <tripinfo id="1#0.4" depart="36.00" departLane="4_0" departPos="5.10" departSpeed="0.00" departDelay="0.00" arrival="267.00" arrivalLane="2_1" arrivalPos="1136.40" arrivalSpeed="12.73" duration="231.00" routeLength="2294.90" waitingTime="22.00" waitingCount="1" stopTime="0.00" timeLoss="50.22" rerouteNo="0" devices="tripinfo_1#0.4 fcd_1#0.4" vType="DEFAULT_VEHTYPE" speedFactor="1.12" vaporized=""/>
    <tripinfo id="2#0.3" depart="54.00" departLane="5_0" departPos="5.10" departSpeed="0.00" departDelay="0.00" arrival="268.00" arrivalLane="2_0" arrivalPos="1136.40" arrivalSpeed="10.69" duration="214.00" routeLength="2292.21" waitingTime="0.00" waitingCount="0" stopTime="0.00" timeLoss="14.89" rerouteNo="0" devices="tripinfo_2#0.3 fcd_2#0.3" vType="DEFAULT_VEHTYPE" speedFactor="1.02" vaporized=""/>
    <tripinfo id="1#0.6" depart="54.00" departLane="4_0" departPos="5.10" departSpeed="0.00" departDelay="0.00" arrival="270.00" arrivalLane="2_0" arrivalPos="1136.40" arrivalSpeed="12.09" duration="216.00" routeLength="2294.90" waitingTime="18.00" waitingCount="1" stopTime="0.00" timeLoss="41.15" rerouteNo="0" devices="tripinfo_1#0.6 fcd_1#0.6" vType="DEFAULT_VEHTYPE" speedFactor="1.16" vaporized=""/>
    <tripinfo id="0#0.4" depart="36.00" departLane="1_0" departPos="5.10" departSpeed="0.00" departDelay="0.00" arrival="271.00" arrivalLane="3_0" arrivalPos="1136.40" arrivalSpeed="10.78" duration="235.00" routeLength="2294.90" waitingTime="22.00" waitingCount="1" stopTime="0.00" timeLoss="41.39" rerouteNo="0" devices="tripinfo_0#0.4 fcd_0#0.4" vType="DEFAULT_VEHTYPE" speedFactor="1.05" vaporized=""/>
    <tripinfo id="3#0.1" depart="18.00" departLane="8_0" departPos="5.10" departSpeed="0.00" departDelay="0.00" arrival="276.00" arrivalLane="6_0" arrivalPos="1136.40" arrivalSpeed="9.64" duration="258.00" routeLength="2294.90" waitingTime="0.00" waitingCount="0" stopTime="0.00" timeLoss="21.94" rerouteNo="0" devices="tripinfo_3#0.1 fcd_3#0.1" vType="DEFAULT_VEHTYPE" speedFactor="0.86" vaporized=""/>
    <tripinfo id="3#0.2" depart="36.00" departLane="8_0" departPos="5.10" departSpeed="0.00" departDelay="0.00" arrival="279.00" arrivalLane="3_0" arrivalPos="1136.40" arrivalSpeed="9.69" duration="243.00" routeLength="2292.21" waitingTime="5.00" waitingCount="1" stopTime="0.00" timeLoss="24.38" rerouteNo="0" devices="tripinfo_3#0.2 fcd_3#0.2" vType="DEFAULT_VEHTYPE" speedFactor="0.93" vaporized=""/>
    <tripinfo id="0#0.9" depart="81.00" departLane="1_0" departPos="5.10" departSpeed="0.00" departDelay="0.00" arrival="279.00" arrivalLane="3_1" arrivalPos="1136.40" arrivalSpeed="11.63" duration="198.00" routeLength="2294.90" waitingTime="0.00" waitingCount="0" stopTime="0.00" timeLoss="18.86" rerouteNo="0" devices="tripinfo_0#0.9 fcd_0#0.9" vType="DEFAULT_VEHTYPE" speedFactor="1.13" vaporized=""/>
    <tripinfo id="1#0.5" depart="45.00" departLane="4_0" departPos="5.10" departSpeed="0.00" departDelay="0.00" arrival="280.00" arrivalLane="7_0" arrivalPos="1136.40" arrivalSpeed="10.41" duration="235.00" routeLength="2276.73" waitingTime="2.00" waitingCount="1" stopTime="0.00" timeLoss="21.40" rerouteNo="0" devices="tripinfo_1#0.5 fcd_1#0.5" vType="DEFAULT_VEHTYPE" speedFactor="0.94" vaporized=""/>
    <tripinfo id="3#0.5" depart="90.00" departLane="8_0" departPos="5.10" departSpeed="0.00" departDelay="0.00" arrival="285.00" arrivalLane="2_0" arrivalPos="1136.40" arrivalSpeed="12.04" duration="195.00" routeLength="2276.73" waitingTime="5.00" waitingCount="1" stopTime="0.00" timeLoss="23.67" rerouteNo="0" devices="tripinfo_3#0.5 fcd_3#0.5" vType="DEFAULT_VEHTYPE" speedFactor="1.17" vaporized=""/>
    <tripinfo id="0#0.7" depart="63.00" departLane="1_0" departPos="5.10" departSpeed="0.00" departDelay="0.00" arrival="286.00" arrivalLane="3_1" arrivalPos="1136.40" arrivalSpeed="10.67" duration="223.00" routeLength="2294.90" waitingTime="0.00" waitingCount="0" stopTime="0.00" timeLoss="15.42" rerouteNo="0" devices="tripinfo_0#0.7 fcd_0#0.7" vType="DEFAULT_VEHTYPE" speedFactor="0.97" vaporized=""/>
    <tripinfo id="0#0.6" depart="54.00" departLane="1_0" departPos="5.10" departSpeed="0.00" departDelay="0.00" arrival="287.00" arrivalLane="3_0" arrivalPos="1136.40" arrivalSpeed="10.11" duration="233.00" routeLength="2294.90" waitingTime="0.00" waitingCount="0" stopTime="0.00" timeLoss="16.45" rerouteNo="0" devices="tripinfo_0#0.6 fcd_0#0.6" vType="DEFAULT_VEHTYPE" speedFactor="0.94" vaporized=""/>
    <tripinfo id="0#0.5" depart="45.00" departLane="1_0" departPos="5.10" departSpeed="0.00" departDelay="0.00" arrival="293.00" arrivalLane="3_0" arrivalPos="1136.40" arrivalSpeed="9.88" duration="248.00" routeLength="2294.90" waitingTime="0.00" waitingCount="0" stopTime="0.00" timeLoss="17.91" rerouteNo="0" devices="tripinfo_0#0.5 fcd_0#0.5" vType="DEFAULT_VEHTYPE" speedFactor="0.88" vaporized=""/>
    <tripinfo id="1#0.2" depart="18.00" departLane="4_0" departPos="5.10" departSpeed="0.00" departDelay="0.00" arrival="294.00" arrivalLane="2_0" arrivalPos="1136.40" arrivalSpeed="9.83" duration="276.00" routeLength="2294.90" waitingTime="22.00" waitingCount="1" stopTime="0.00" timeLoss="47.87" rerouteNo="0" devices="tripinfo_1#0.2 fcd_1#0.2" vType="DEFAULT_VEHTYPE" speedFactor="0.89" vaporized=""/>
    <tripinfo id="1#0.1" depart="9.00" departLane="4_0" departPos="5.10" departSpeed="0.00" departDelay="0.00" arrival="298.00" arrivalLane="2_0" arrivalPos="1136.40" arrivalSpeed="8.21" duration="289.00" routeLength="2294.90" waitingTime="23.00" waitingCount="1" stopTime="0.00" timeLoss="45.88" rerouteNo="0" devices="tripinfo_1#0.1 fcd_1#0.1" vType="DEFAULT_VEHTYPE" speedFactor="0.83" vaporized=""/>
    <tripinfo id="3#0.3" depart="54.00" departLane="8_0" departPos="5.10" departSpeed="0.00" departDelay="0.00" arrival="301.00" arrivalLane="6_0" arrivalPos="1136.40" arrivalSpeed="11.48" duration="247.00" routeLength="2294.90" waitingTime="26.00" waitingCount="1" stopTime="0.00" timeLoss="47.02" rerouteNo="0" devices="tripinfo_3#0.3 fcd_3#0.3" vType="DEFAULT_VEHTYPE" speedFactor="1.01" vaporized=""/>
    <tripinfo id="0#0.10" depart="90.00" departLane="1_0" departPos="5.10" departSpeed="0.00" departDelay="0.00" arrival="303.00" arrivalLane="3_0" arrivalPos="1136.40" arrivalSpeed="12.28" duration="213.00" routeLength="2294.90" waitingTime="26.00" waitingCount="1" stopTime="0.00" timeLoss="41.57" rerouteNo="0" devices="tripinfo_0#0.10 fcd_0#0.10" vType="DEFAULT_VEHTYPE" speedFactor="1.18" vaporized=""/>
    <tripinfo id="2#0.5" depart="90.00" departLane="5_0" departPos="5.10" departSpeed="0.00" departDelay="0.00" arrival="305.00" arrivalLane="7_0" arrivalPos="1136.40" arrivalSpeed="10.91" duration="215.00" routeLength="2294.90" waitingTime="0.00" waitingCount="0" stopTime="0.00" timeLoss="13.69" rerouteNo="0" devices="tripinfo_2#0.5 fcd_2#0.5" vType="DEFAULT_VEHTYPE" speedFactor="1.01" vaporized=""/>
    <tripinfo id="1#0.10" depart="90.00" departLane="4_0" departPos="5.10" departSpeed="0.00" departDelay="0.00" arrival="309.00" arrivalLane="2_0" arrivalPos="1136.40" arrivalSpeed="11.87" duration="219.00" routeLength="2294.90" waitingTime="19.00" waitingCount="1" stopTime="0.00" timeLoss="43.27" rerouteNo="0" devices="tripinfo_1#0.10 fcd_1#0.10" vType="DEFAULT_VEHTYPE" speedFactor="1.15" vaporized=""/>
    <tripinfo id="2#0.4" depart="72.00" departLane="5_0" departPos="5.10" departSpeed="0.00" departDelay="0.00" arrival="311.00" arrivalLane="7_0" arrivalPos="1136.40" arrivalSpeed="9.47" duration="239.00" routeLength="2294.90" waitingTime="0.00" waitingCount="0" stopTime="0.00" timeLoss="18.66" rerouteNo="0" devices="tripinfo_2#0.4 fcd_2#0.4" vType="DEFAULT_VEHTYPE" speedFactor="0.92" vaporized=""/>
    <tripinfo id="3#0.4" depart="72.00" departLane="8_0" departPos="5.10" departSpeed="0.00" departDelay="0.00" arrival="311.00" arrivalLane="6_0" arrivalPos="1136.40" arrivalSpeed="9.50" duration="239.00" routeLength="2294.90" waitingTime="7.00" waitingCount="1" stopTime="0.00" timeLoss="25.81" rerouteNo="0" devices="tripinfo_3#0.4 fcd_3#0.4" vType="DEFAULT_VEHTYPE" speedFactor="0.95" vaporized=""/>
    <tripinfo id="1#0.12" depart="108.00" departLane="4_0" departPos="5.10" departSpeed="0.00" departDelay="0.00" arrival="313.00" arrivalLane="2_0" arrivalPos="1136.40" arrivalSpeed="12.49" duration="205.00" routeLength="2294.90" waitingTime="12.00" waitingCount="1" stopTime="0.00" timeLoss="32.88" rerouteNo="0" devices="tripinfo_1#0.12 fcd_1#0.12" vType="DEFAULT_VEHTYPE" speedFactor="1.18" vaporized=""/>
    <tripinfo id="0#0.14" depart="126.00" departLane="1_0" departPos="5.10" departSpeed="0.00" departDelay="0.00" arrival="326.00" arrivalLane="3_0" arrivalPos="1136.40" arrivalSpeed="12.40" duration="200.00" routeLength="2294.90" waitingTime="0.00" waitingCount="0" stopTime="0.00" timeLoss="14.45" rerouteNo="0" devices="tripinfo_0#0.14 fcd_0#0.14" vType="DEFAULT_VEHTYPE" speedFactor="1.09" vaporized=""/>
    <tripinfo id="1#0.11" depart="99.00" departLane="4_0" departPos="5.10" departSpeed="0.00" departDelay="0.00" arrival="327.00" arrivalLane="2_0" arrivalPos="1136.40" arrivalSpeed="10.96" duration="228.00" routeLength="2294.90" waitingTime="10.00" waitingCount="1" stopTime="0.00" timeLoss="29.59" rerouteNo="0" devices="tripinfo_1#0.11 fcd_1#0.11" vType="DEFAULT_VEHTYPE" speedFactor="1.02" vaporized=""/>
    <tripinfo id="0#0.13" depart="117.00" departLane="1_0" departPos="5.10" departSpeed="0.00" departDelay="0.00" arrival="328.00" arrivalLane="3_0" arrivalPos="1136.40" arrivalSpeed="11.64" duration="211.00" routeLength="2294.90" waitingTime="0.00" waitingCount="0" stopTime="0.00" timeLoss="14.27" rerouteNo="0" devices="tripinfo_0#0.13 fcd_0#0.13" vType="DEFAULT_VEHTYPE" speedFactor="1.03" vaporized=""/>
    <tripinfo id="0#0.12" depart="108.00" departLane="1_0" departPos="5.10" departSpeed="0.00" departDelay="0.00" arrival="333.00" arrivalLane="3_0" arrivalPos="1136.40" arrivalSpeed="10.24" duration="225.00" routeLength="2294.90" waitingTime="0.00" waitingCount="0" stopTime="0.00" timeLoss="16.63" rerouteNo="0" devices="tripinfo_0#0.12 fcd_0#0.12" vType="DEFAULT_VEHTYPE" speedFactor="0.97" vaporized=""/>
    <tripinfo id="3#0.8" depart="144.00" departLane="8_0" departPos="5.10" departSpeed="0.00" departDelay="0.00" arrival="333.00" arrivalLane="6_0" arrivalPos="1136.40" arrivalSpeed="13.25" duration="189.00" routeLength="2294.90" waitingTime="0.00" waitingCount="0" stopTime="0.00" timeLoss="15.82" rerouteNo="0" devices="tripinfo_3#0.8 fcd_3#0.8" vType="DEFAULT_VEHTYPE" speedFactor="1.17" vaporized=""/>
    <tripinfo id="1#0.7" depart="63.00" departLane="4_0" departPos="5.10" departSpeed="0.00" departDelay="0.00" arrival="334.00" arrivalLane="2_0" arrivalPos="1136.40" arrivalSpeed="9.62" duration="271.00" routeLength="2294.90" waitingTime="21.00" waitingCount="1" stopTime="0.00" timeLoss="43.86" rerouteNo="0" devices="tripinfo_1#0.7 fcd_1#0.7" vType="DEFAULT_VEHTYPE" speedFactor="0.89" vaporized=""/>
    <tripinfo id="1#0.9" depart="81.00" departLane="4_0" departPos="5.10" departSpeed="0.00" departDelay="0.00" arrival="334.00" arrivalLane="2_1" arrivalPos="1136.40" arrivalSpeed="10.05" duration="253.00" routeLength="2294.90" waitingTime="13.00" waitingCount="1" stopTime="0.00" timeLoss="35.49" rerouteNo="0" devices="tripinfo_1#0.9 fcd_1#0.9" vType="DEFAULT_VEHTYPE" speedFactor="0.93" vaporized=""/>
    <tripinfo id="1#0.8" depart="72.00" departLane="4_0" departPos="5.10" departSpeed="0.00" departDelay="0.00" arrival="335.00" arrivalLane="7_0" arrivalPos="1136.40" arrivalSpeed="8.70" duration="263.00" routeLength="2276.73" waitingTime="10.00" waitingCount="1" stopTime="0.00" timeLoss="32.76" rerouteNo="0" devices="tripinfo_1#0.8 fcd_1#0.8" vType="DEFAULT_VEHTYPE" speedFactor="0.87" vaporized=""/>
    <tripinfo id="2#0.6" depart="108.00" departLane="5_0" departPos="5.10" departSpeed="0.00" departDelay="0.00" arrival="336.00" arrivalLane="3_0" arrivalPos="1136.40" arrivalSpeed="11.40" duration="228.00" routeLength="2276.73" waitingTime="28.00" waitingCount="1" stopTime="0.00" timeLoss="45.12" rerouteNo="0" devices="tripinfo_2#0.6 fcd_2#0.6" vType="DEFAULT_VEHTYPE" speedFactor="1.10" vaporized=""/>
    <tripinfo id="3#0.7" depart="126.00" departLane="8_0" departPos="5.10" departSpeed="0.00" departDelay="0.00" arrival="338.00" arrivalLane="6_0" arrivalPos="1136.40" arrivalSpeed="11.30" duration="212.00" routeLength="2294.90" waitingTime="9.00" waitingCount="1" stopTime="0.00" timeLoss="25.89" rerouteNo="0" devices="tripinfo_3#0.7 fcd_3#0.7" vType="DEFAULT_VEHTYPE" speedFactor="1.09" vaporized=""/>
    <tripinfo id="0#0.11" depart="99.00" departLane="1_0" departPos="5.10" departSpeed="0.00" departDelay="0.00" arrival="343.00" arrivalLane="7_1" arrivalPos="1136.40" arrivalSpeed="10.85" duration="244.00" routeLength="2292.21" waitingTime="21.00" waitingCount="1" stopTime="0.00" timeLoss="40.70" rerouteNo="0" devices="tripinfo_0#0.11 fcd_0#0.11" vType="DEFAULT_VEHTYPE" speedFactor="0.99" vaporized=""/>
    <tripinfo id="1#0.13" depart="117.00" departLane="4_0" departPos="5.10" departSpeed="0.00" departDelay="0.00" arrival="344.00" arrivalLane="7_0" arrivalPos="1136.40" arrivalSpeed="9.76" duration="227.00" routeLength="2276.73" waitingTime="0.00" waitingCount="0" stopTime="0.00" timeLoss="16.05" rerouteNo="0" devices="tripinfo_1#0.13 fcd_1#0.13" vType="DEFAULT_VEHTYPE" speedFactor="0.96" vaporized=""/>
    <tripinfo id="2#0.7" depart="126.00" departLane="5_0" departPos="5.10" departSpeed="0.00" departDelay="0.00" arrival="344.00" arrivalLane="3_0" arrivalPos="1136.40" arrivalSpeed="10.93" duration="218.00" routeLength="2276.73" waitingTime="7.00" waitingCount="1" stopTime="0.00" timeLoss="25.38" rerouteNo="0" devices="tripinfo_2#0.7 fcd_2#0.7" vType="DEFAULT_VEHTYPE" speedFactor="1.04" vaporized=""/>
    <tripinfo id="1#0.17" depart="153.00" departLane="4_0" departPos="5.10" departSpeed="0.00" departDelay="0.00" arrival="357.00" arrivalLane="7_0" arrivalPos="1136.40" arrivalSpeed="11.80" duration="204.00" routeLength="2276.73" waitingTime="0.00" waitingCount="0" stopTime="0.00" timeLoss="19.75" rerouteNo="0" devices="tripinfo_1#0.17 fcd_1#0.17" vType="DEFAULT_VEHTYPE" speedFactor="1.10" vaporized=""/>
    <tripinfo id="3#0.6" depart="108.00" departLane="8_0" departPos="5.10" departSpeed="0.00" departDelay="0.00" arrival="358.00" arrivalLane="2_0" arrivalPos="1136.40" arrivalSpeed="9.40" duration="250.00" routeLength="2276.73" waitingTime="5.00" waitingCount="1" stopTime="0.00" timeLoss="26.75" rerouteNo="0" devices="tripinfo_3#0.6 fcd_3#0.6" vType="DEFAULT_VEHTYPE" speedFactor="0.90" vaporized=""/>
    <tripinfo id="1#0.14" depart="126.00" departLane="4_0" departPos="5.10" departSpeed="0.00" departDelay="0.00" arrival="362.00" arrivalLane="2_0" arrivalPos="1136.40" arrivalSpeed="10.64" duration="236.00" routeLength="2294.90" waitingTime="22.00" waitingCount="1" stopTime="0.00" timeLoss="41.22" rerouteNo="0" devices="tripinfo_1#0.14 fcd_1#0.14" vType="DEFAULT_VEHTYPE" speedFactor="1.04" vaporized=""/>
    <tripinfo id="0#0.8" depart="72.00" departLane="1_0" departPos="5.10" departSpeed="0.00" departDelay="0.00" arrival="363.00" arrivalLane="7_0" arrivalPos="1136.40" arrivalSpeed="8.95" duration="291.00" routeLength="2292.21" waitingTime="22.00" waitingCount="1" stopTime="0.00" timeLoss="46.46" rerouteNo="0" devices="tripinfo_0#0.8 fcd_0#0.8" vType="DEFAULT_VEHTYPE" speedFactor="0.83" vaporized=""/>
    <tripinfo id="0#0.15" depart="135.00" departLane="1_0" departPos="5.10" departSpeed="0.00" departDelay="0.00" arrival="365.00" arrivalLane="3_0" arrivalPos="1136.40" arrivalSpeed="10.80" duration="230.00" routeLength="2294.90" waitingTime="9.00" waitingCount="1" stopTime="0.00" timeLoss="26.65" rerouteNo="0" devices="tripinfo_0#0.15 fcd_0#0.15" vType="DEFAULT_VEHTYPE" speedFactor="1.00" vaporized=""/>
    <tripinfo id="0#0.17" depart="153.00" departLane="1_0" departPos="5.10" departSpeed="0.00" departDelay="0.00" arrival="367.00" arrivalLane="3_0" arrivalPos="1136.40" arrivalSpeed="10.76" duration="214.00" routeLength="2294.90" waitingTime="0.00" waitingCount="0" stopTime="0.00" timeLoss="15.04" rerouteNo="0" devices="tripinfo_0#0.17 fcd_0#0.17" vType="DEFAULT_VEHTYPE" speedFactor="1.02" vaporized=""/>
    <tripinfo id="1#0.15" depart="135.00" departLane="4_0" departPos="5.10" departSpeed="0.00" departDelay="0.00" arrival="376.00" arrivalLane="7_0" arrivalPos="1136.40" arrivalSpeed="9.10" duration="241.00" routeLength="2276.73" waitingTime="0.00" waitingCount="0" stopTime="0.00" timeLoss="17.30" rerouteNo="0" devices="tripinfo_1#0.15 fcd_1#0.15" vType="DEFAULT_VEHTYPE" speedFactor="0.90" vaporized=""/>
    <tripinfo id="3#0.9" depart="162.00" departLane="8_0" departPos="5.10" departSpeed="0.00" departDelay="0.00" arrival="378.00" arrivalLane="6_0" arrivalPos="1136.40" arrivalSpeed="12.64" duration="216.00" routeLength="2294.90" waitingTime="23.00" waitingCount="1" stopTime="0.00" timeLoss="38.66" rerouteNo="0" devices="tripinfo_3#0.9 fcd_3#0.9" vType="DEFAULT_VEHTYPE" speedFactor="1.14" vaporized=""/>
    <tripinfo id="0#0.18" depart="162.00" departLane="1_0" departPos="5.10" departSpeed="0.00" departDelay="0.00" arrival="384.00" arrivalLane="7_0" arrivalPos="1136.40" arrivalSpeed="11.29" duration="222.00" routeLength="2292.21" waitingTime="0.00" waitingCount="0" stopTime="0.00" timeLoss="20.06" rerouteNo="0" devices="tripinfo_0#0.18 fcd_0#0.18" vType="DEFAULT_VEHTYPE" speedFactor="1.00" vaporized=""/>
    <tripinfo id="0#0.16" depart="144.00" departLane="1_0" departPos="5.10" departSpeed="0.00" departDelay="0.00" arrival="393.00" arrivalLane="3_0" arrivalPos="1136.40" arrivalSpeed="9.52" duration="249.00" routeLength="2294.90" waitingTime="0.00" waitingCount="0" stopTime="0.00" timeLoss="18.60" rerouteNo="0" devices="tripinfo_0#0.16 fcd_0#0.16" vType="DEFAULT_VEHTYPE" speedFactor="0.88" vaporized=""/>
    <tripinfo id="2#0.10" depart="180.00" departLane="5_0" departPos="5.10" departSpeed="0.00" departDelay="0.00" arrival="393.00" arrivalLane="3_1" arrivalPos="1136.40" arrivalSpeed="11.33" duration="213.00" routeLength="2276.73" waitingTime="0.00" waitingCount="0" stopTime="0.00" timeLoss="14.91" rerouteNo="0" devices="tripinfo_2#0.10 fcd_2#0.10" vType="DEFAULT_VEHTYPE" speedFactor="1.02" vaporized=""/>
    <tripinfo id="1#0.16" depart="144.00" departLane="4_0" departPos="5.10" departSpeed="0.00" departDelay="0.00" arrival="400.00" arrivalLane="2_0" arrivalPos="1136.40" arrivalSpeed="9.17" duration="256.00" routeLength="2294.90" waitingTime="0.00" waitingCount="0" stopTime="0.00" timeLoss="17.86" rerouteNo="0" devices="tripinfo_1#0.16 fcd_1#0.16" vType="DEFAULT_VEHTYPE" speedFactor="0.85" vaporized=""/>
    <tripinfo id="1#0.20" depart="180.00" departLane="4_0" departPos="5.10" departSpeed="0.00" departDelay="0.00" arrival="401.00" arrivalLane="2_1" arrivalPos="1136.40" arrivalSpeed="12.35" duration="221.00" routeLength="2294.90" waitingTime="21.00" waitingCount="1" stopTime="0.00" timeLoss="40.12" rerouteNo="0" devices="tripinfo_1#0.20 fcd_1#0.20" vType="DEFAULT_VEHTYPE" speedFactor="1.12" vaporized=""/>
    <tripinfo id="3#0.10" depart="180.00" departLane="8_0" departPos="5.10" departSpeed="0.00" departDelay="0.00" arrival="402.00" arrivalLane="2_0" arrivalPos="1136.40" arrivalSpeed="10.93" duration="222.00" routeLength="2276.73" waitingTime="0.00" waitingCount="0" stopTime="0.00" timeLoss="17.46" rerouteNo="0" devices="tripinfo_3#0.10 fcd_3#0.10" vType="DEFAULT_VEHTYPE" speedFactor="0.99" vaporized=""/>
    <tripinfo id="0#0.20" depart="180.00" departLane="1_0" departPos="5.10" departSpeed="0.00" departDelay="0.00" arrival="404.00" arrivalLane="3_0" arrivalPos="1136.40" arrivalSpeed="11.56" duration="224.00" routeLength="2294.90" waitingTime="18.00" waitingCount="1" stopTime="0.00" timeLoss="37.08" rerouteNo="0" devices="tripinfo_0#0.20 fcd_0#0.20" vType="DEFAULT_VEHTYPE" speedFactor="1.08" vaporized=""/>
    <tripinfo id="2#0.9" depart="162.00" departLane="5_0" departPos="5.10" departSpeed="0.00" departDelay="0.00" arrival="407.00" arrivalLane="7_0" arrivalPos="1136.40" arrivalSpeed="9.77" duration="245.00" routeLength="2294.90" waitingTime="0.00" waitingCount="0" stopTime="0.00" timeLoss="20.26" rerouteNo="0" devices="tripinfo_2#0.9 fcd_2#0.9" vType="DEFAULT_VEHTYPE" speedFactor="0.90" vaporized=""/>
    <tripinfo id="0#0.19" depart="171.00" departLane="1_0" departPos="5.10" departSpeed="0.00" departDelay="0.00" arrival="408.00" arrivalLane="3_0" arrivalPos="1136.40" arrivalSpeed="11.19" duration="237.00" routeLength="2294.90" waitingTime="20.00" waitingCount="1" stopTime="0.00" timeLoss="39.56" rerouteNo="0" devices="tripinfo_0#0.19 fcd_0#0.19" vType="DEFAULT_VEHTYPE" speedFactor="1.02" vaporized=""/>
    <tripinfo id="2#0.8" depart="144.00" departLane="5_0" departPos="5.10" departSpeed="0.00" departDelay="0.00" arrival="411.00" arrivalLane="7_0" arrivalPos="1136.40" arrivalSpeed="9.36" duration="267.00" routeLength="2294.90" waitingTime="9.00" waitingCount="1" stopTime="0.00" timeLoss="30.67" rerouteNo="0" devices="tripinfo_2#0.8 fcd_2#0.8" vType="DEFAULT_VEHTYPE" speedFactor="0.85" vaporized=""/>
    <tripinfo id="1#0.18" depart="162.00" departLane="4_0" departPos="5.10" departSpeed="0.00" departDelay="0.00" arrival="411.00" arrivalLane="2_0" arrivalPos="1136.40" arrivalSpeed="10.30" duration="249.00" routeLength="2294.90" waitingTime="25.00" waitingCount="1" stopTime="0.00" timeLoss="45.65" rerouteNo="0" devices="tripinfo_1#0.18 fcd_1#0.18" vType="DEFAULT_VEHTYPE" speedFactor="1.00" vaporized=""/>
    <tripinfo id="1#0.19" depart="171.00" departLane="4_0" departPos="5.10" departSpeed="0.00" departDelay="0.00" arrival="412.00" arrivalLane="7_1" arrivalPos="1136.40" arrivalSpeed="10.66" duration="241.00" routeLength="2276.73" waitingTime="14.00" waitingCount="1" stopTime="0.00" timeLoss="33.46" rerouteNo="0" devices="tripinfo_1#0.19 fcd_1#0.19" vType="DEFAULT_VEHTYPE" speedFactor="0.97" vaporized=""/>
    <tripinfo id="0#0.23" depart="207.00" departLane="1_0" departPos="5.10" departSpeed="0.00" departDelay="0.00" arrival="421.00" arrivalLane="3_0" arrivalPos="1136.40" arrivalSpeed="11.04" duration="214.00" routeLength="2294.90" waitingTime="0.00" waitingCount="0" stopTime="0.00" timeLoss="15.61" rerouteNo="0" devices="tripinfo_0#0.23 fcd_0#0.23" vType="DEFAULT_VEHTYPE" speedFactor="1.02" vaporized=""/>
    <tripinfo id="0#0.21" depart="189.00" departLane="1_0" departPos="5.10" departSpeed="0.00" departDelay="0.00" arrival="423.00" arrivalLane="3_0" arrivalPos="1136.40" arrivalSpeed="9.66" duration="234.00" routeLength="2294.90" waitingTime="0.00" waitingCount="0" stopTime="0.00" timeLoss="17.81" rerouteNo="0" devices="tripinfo_0#0.21 fcd_0#0.21" vType="DEFAULT_VEHTYPE" speedFactor="0.94" vaporized=""/>
    <tripinfo id="2#0.11" depart="198.00" departLane="5_0" departPos="5.10" departSpeed="0.00" departDelay="0.00" arrival="432.00" arrivalLane="3_0" arrivalPos="1136.40" arrivalSpeed="11.23" duration="234.00" routeLength="2276.73" waitingTime="22.00" waitingCount="1" stopTime="0.00" timeLoss="40.13" rerouteNo="0" devices="tripinfo_2#0.11 fcd_2#0.11" vType="DEFAULT_VEHTYPE" speedFactor="1.04" vaporized=""/>
    <tripinfo id="3#0.11" depart="198.00" departLane="8_0" departPos="5.10" departSpeed="0.00" departDelay="0.00" arrival="434.00" arrivalLane="6_0" arrivalPos="1136.40" arrivalSpeed="11.18" duration="236.00" routeLength="2294.90" waitingTime="19.00" waitingCount="1" stopTime="0.00" timeLoss="38.06" rerouteNo="0" devices="tripinfo_3#0.11 fcd_3#0.11" vType="DEFAULT_VEHTYPE" speedFactor="1.02" vaporized=""/>
    <tripinfo id="1#0.21" depart="189.00" departLane="4_0" departPos="5.10" departSpeed="0.00" departDelay="0.00" arrival="437.00" arrivalLane="2_0" arrivalPos="1136.40" arrivalSpeed="9.96" duration="248.00" routeLength="2294.90" waitingTime="0.00" waitingCount="0" stopTime="0.00" timeLoss="18.52" rerouteNo="0" devices="tripinfo_1#0.21 fcd_1#0.21" vType="DEFAULT_VEHTYPE" speedFactor="0.88" vaporized=""/>
    <tripinfo id="3#0.12" depart="216.00" departLane="8_0" departPos="5.10" departSpeed="0.00" departDelay="0.00" arrival="437.00" arrivalLane="2_1" arrivalPos="1136.40" arrivalSpeed="10.74" duration="221.00" routeLength="2276.73" waitingTime="0.00" waitingCount="0" stopTime="0.00" timeLoss="16.70" rerouteNo="0" devices="tripinfo_3#0.12 fcd_3#0.12" vType="DEFAULT_VEHTYPE" speedFactor="0.98" vaporized=""/>