<?xml version="1.0" encoding="UTF-8"?>

<!-- generated on 2023-05-07 16:32:30 by Eclipse SUMO GUI Version 1.16.0
<configuration xmlns:xsi="http://www.w3.org/2001/XMLSchema-instance" xsi:noNamespaceSchemaLocation="http://sumo.dlr.de/xsd/sumoConfiguration.xsd">

    <input>
        <net-file value=".\SUMO_Input\./net/Test4.net.xml"/>
        <route-files value=".\SUMO_Input\./route/Test4.rou.xml"/>
        <additional-files value=".\SUMO_Input\dets.add.xml"/>
    </input>

    <output>
        <fcd-output value=".\SUMO_Input\../SUMO_Output/fcd.xml"/>
        <tripinfo-output value=".\SUMO_Input\../SUMO_Output/tripinfos.xml"/>
    </output>

    <time>
        <begin value="0"/>
        <end value="10000"/>
    </time>

    <gui_only>
        <gui-settings-file value=".\SUMO_Input\Test4.settings.xml"/>
    </gui_only>

</configuration>
-->

<tripinfos xmlns:xsi="http://www.w3.org/2001/XMLSchema-instance" xsi:noNamespaceSchemaLocation="http://sumo.dlr.de/xsd/tripinfo_file.xsd">
    <tripinfo id="0#1.0" depart="0.00" departLane="1_0" departPos="5.10" departSpeed="0.00" departDelay="0.00" arrival="214.00" arrivalLane="6_0" arrivalPos="1136.40" arrivalSpeed="11.68" duration="214.00" routeLength="2276.73" waitingTime="6.00" waitingCount="1" stopTime="0.00" timeLoss="23.42" rerouteNo="0" devices="tripinfo_0#1.0 fcd_0#1.0" vType="DEFAULT_VEHTYPE" speedFactor="1.06" vaporized=""/>
    <tripinfo id="0#1.1" depart="9.00" departLane="1_0" departPos="5.10" departSpeed="0.00" departDelay="0.00" arrival="220.00" arrivalLane="3_0" arrivalPos="1136.40" arrivalSpeed="11.09" duration="211.00" routeLength="2294.90" waitingTime="0.00" waitingCount="0" stopTime="0.00" timeLoss="14.04" rerouteNo="0" devices="tripinfo_0#1.1 fcd_0#1.1" vType="DEFAULT_VEHTYPE" speedFactor="1.03" vaporized=""/>
    <tripinfo id="0#1.2" depart="18.00" departLane="1_0" departPos="5.10" departSpeed="0.00" departDelay="0.00" arrival="225.00" arrivalLane="6_0" arrivalPos="1136.40" arrivalSpeed="11.19" duration="207.00" routeLength="2276.73" waitingTime="0.00" waitingCount="0" stopTime="0.00" timeLoss="14.39" rerouteNo="0" devices="tripinfo_0#1.2 fcd_0#1.2" vType="DEFAULT_VEHTYPE" speedFactor="1.05" vaporized=""/>
    <tripinfo id="0#1.3" depart="27.00" departLane="1_0" departPos="5.10" departSpeed="0.00" departDelay="0.00" arrival="225.00" arrivalLane="3_0" arrivalPos="1136.40" arrivalSpeed="11.23" duration="198.00" routeLength="2294.90" waitingTime="0.00" waitingCount="0" stopTime="0.00" timeLoss="12.72" rerouteNo="0" devices="tripinfo_0#1.3 fcd_0#1.3" vType="DEFAULT_VEHTYPE" speedFactor="1.09" vaporized=""/>
    <tripinfo id="3#1.0" depart="0.00" departLane="8_0" departPos="5.10" departSpeed="0.00" departDelay="0.00" arrival="245.00" arrivalLane="6_0" arrivalPos="1136.40" arrivalSpeed="12.16" duration="245.00" routeLength="2294.90" waitingTime="40.00" waitingCount="1" stopTime="0.00" timeLoss="58.34" rerouteNo="0" devices="tripinfo_3#1.0 fcd_3#1.0" vType="DEFAULT_VEHTYPE" speedFactor="1.08" vaporized=""/>
    <tripinfo id="1#1.0" depart="0.00" departLane="4_0" departPos="5.10" departSpeed="0.00" departDelay="0.00" arrival="251.00" arrivalLane="6_0" arrivalPos="1136.40" arrivalSpeed="10.53" duration="251.00" routeLength="2292.21" waitingTime="14.00" waitingCount="1" stopTime="0.00" timeLoss="34.93" rerouteNo="0" devices="tripinfo_1#1.0 fcd_1#1.0" vType="DEFAULT_VEHTYPE" speedFactor="0.94" vaporized=""/>
    <tripinfo id="2#1.2" depart="36.00" departLane="5_0" departPos="5.10" departSpeed="0.00" departDelay="0.00" arrival="256.00" arrivalLane="7_0" arrivalPos="1136.40" arrivalSpeed="10.50" duration="220.00" routeLength="2294.90" waitingTime="0.00" waitingCount="0" stopTime="0.00" timeLoss="16.08" rerouteNo="0" devices="tripinfo_2#1.2 fcd_2#1.2" vType="DEFAULT_VEHTYPE" speedFactor="0.99" vaporized=""/>
    <tripinfo id="2#1.1" depart="18.00" departLane="5_0" departPos="5.10" departSpeed="0.00" departDelay="0.00" arrival="261.00" arrivalLane="7_0" arrivalPos="1136.40" arrivalSpeed="9.84" duration="243.00" routeLength="2294.90" waitingTime="7.00" waitingCount="1" stopTime="0.00" timeLoss="27.06" rerouteNo="0" devices="tripinfo_2#1.1 fcd_2#1.1" vType="DEFAULT_VEHTYPE" speedFactor="0.94" vaporized=""/>
    <tripinfo id="2#1.0" depart="0.00" departLane="5_0" departPos="5.10" departSpeed="0.00" departDelay="0.00" arrival="266.00" arrivalLane="2_0" arrivalPos="1136.40" arrivalSpeed="11.31" duration="266.00" routeLength="2292.21" waitingTime="48.00" waitingCount="1" stopTime="0.00" timeLoss="65.47" rerouteNo="0" devices="tripinfo_2#1.0 fcd_2#1.0" vType="DEFAULT_VEHTYPE" speedFactor="1.01" vaporized=""/>
    <tripinfo id="2#1.3" depart="54.00" departLane="5_0" departPos="5.10" departSpeed="0.00" departDelay="0.00" arrival="267.00" arrivalLane="2_1" arrivalPos="1136.40" arrivalSpeed="10.63" duration="213.00" routeLength="2292.21" waitingTime="0.00" waitingCount="0" stopTime="0.00" timeLoss="13.89" rerouteNo="0" devices="tripinfo_2#1.3 fcd_2#1.3" vType="DEFAULT_VEHTYPE" speedFactor="1.02" vaporized=""/>
    <tripinfo id="1#1.4" depart="36.00" departLane="4_0" departPos="5.10" departSpeed="0.00" departDelay="0.00" arrival="268.00" arrivalLane="2_0" arrivalPos="1136.40" arrivalSpeed="12.71" duration="232.00" routeLength="2294.90" waitingTime="23.00" waitingCount="1" stopTime="0.00" timeLoss="51.57" rerouteNo="0" devices="tripinfo_1#1.4 fcd_1#1.4" vType="DEFAULT_VEHTYPE" speedFactor="1.12" vaporized=""/>
    <tripinfo id="0#1.4" depart="36.00" departLane="1_0" departPos="5.10" departSpeed="0.00" departDelay="0.00" arrival="270.00" arrivalLane="3_0" arrivalPos="1136.40" arrivalSpeed="10.75" duration="234.00" routeLength="2294.90" waitingTime="22.00" waitingCount="1" stopTime="0.00" timeLoss="40.90" rerouteNo="0" devices="tripinfo_0#1.4 fcd_0#1.4" vType="DEFAULT_VEHTYPE" speedFactor="1.05" vaporized=""/>
    <tripinfo id="1#1.3" depart="27.00" departLane="4_0" departPos="5.10" departSpeed="0.00" departDelay="0.00" arrival="272.00" arrivalLane="2_0" arrivalPos="1136.40" arrivalSpeed="10.86" duration="245.00" routeLength="2294.90" waitingTime="29.00" waitingCount="1" stopTime="0.00" timeLoss="47.46" rerouteNo="0" devices="tripinfo_1#1.3 fcd_1#1.3" vType="DEFAULT_VEHTYPE" speedFactor="1.03" vaporized=""/>
    <tripinfo id="3#1.1" depart="18.00" departLane="8_0" departPos="5.10" departSpeed="0.00" departDelay="0.00" arrival="274.00" arrivalLane="6_0" arrivalPos="1136.40" arrivalSpeed="9.46" duration="256.00" routeLength="2294.90" waitingTime="0.00" waitingCount="0" stopTime="0.00" timeLoss="20.10" rerouteNo="0" devices="tripinfo_3#1.1 fcd_3#1.1" vType="DEFAULT_VEHTYPE" speedFactor="0.86" vaporized=""/>
    <tripinfo id="1#1.6" depart="54.00" departLane="4_0" departPos="5.10" departSpeed="0.00" departDelay="0.00" arrival="274.00" arrivalLane="2_0" arrivalPos="1136.40" arrivalSpeed="11.87" duration="220.00" routeLength="2294.90" waitingTime="20.00" waitingCount="1" stopTime="0.00" timeLoss="44.76" rerouteNo="0" devices="tripinfo_1#1.6 fcd_1#1.6" vType="DEFAULT_VEHTYPE" speedFactor="1.16" vaporized=""/>
    <tripinfo id="3#1.2" depart="36.00" departLane="8_0" departPos="5.10" departSpeed="0.00" departDelay="0.00" arrival="275.00" arrivalLane="3_0" arrivalPos="1136.40" arrivalSpeed="10.30" duration="239.00" routeLength="2292.21" waitingTime="3.00" waitingCount="1" stopTime="0.00" timeLoss="20.60" rerouteNo="0" devices="tripinfo_3#1.2 fcd_3#1.2" vType="DEFAULT_VEHTYPE" speedFactor="0.93" vaporized=""/>
    <tripinfo id="0#1.9" depart="81.00" departLane="1_0" departPos="5.10" departSpeed="0.00" departDelay="0.00" arrival="279.00" arrivalLane="3_0" arrivalPos="1136.40" arrivalSpeed="12.49" duration="198.00" routeLength="2294.90" waitingTime="0.00" waitingCount="0" stopTime="0.00" timeLoss="19.20" rerouteNo="0" devices="tripinfo_0#1.9 fcd_0#1.9" vType="DEFAULT_VEHTYPE" speedFactor="1.13" vaporized=""/>
    <tripinfo id="0#1.10" depart="90.00" departLane="1_0" departPos="5.10" departSpeed="0.00" departDelay="0.00" arrival="279.00" arrivalLane="3_1" arrivalPos="1136.40" arrivalSpeed="12.83" duration="189.00" routeLength="2294.90" waitingTime="0.00" waitingCount="0" stopTime="0.00" timeLoss="17.60" rerouteNo="0" devices="tripinfo_0#1.10 fcd_0#1.10" vType="DEFAULT_VEHTYPE" speedFactor="1.18" vaporized=""/>
    <tripinfo id="1#1.5" depart="45.00" departLane="4_0" departPos="5.10" departSpeed="0.00" departDelay="0.00" arrival="280.00" arrivalLane="7_0" arrivalPos="1136.40" arrivalSpeed="9.43" duration="235.00" routeLength="2276.73" waitingTime="1.00" waitingCount="1" stopTime="0.00" timeLoss="21.71" rerouteNo="0" devices="tripinfo_1#1.5 fcd_1#1.5" vType="DEFAULT_VEHTYPE" speedFactor="0.94" vaporized=""/>
    <tripinfo id="0#1.7" depart="63.00" departLane="1_0" departPos="5.10" departSpeed="0.00" departDelay="0.00" arrival="286.00" arrivalLane="3_0" arrivalPos="1136.40" arrivalSpeed="10.70" duration="223.00" routeLength="2294.90" waitingTime="0.00" waitingCount="0" stopTime="0.00" timeLoss="15.52" rerouteNo="0" devices="tripinfo_0#1.7 fcd_0#1.7" vType="DEFAULT_VEHTYPE" speedFactor="0.97" vaporized=""/>
    <tripinfo id="0#1.6" depart="54.00" departLane="1_0" departPos="5.10" departSpeed="0.00" departDelay="0.00" arrival="288.00" arrivalLane="3_0" arrivalPos="1136.40" arrivalSpeed="10.02" duration="234.00" routeLength="2294.90" waitingTime="0.00" waitingCount="0" stopTime="0.00" timeLoss="17.73" rerouteNo="0" devices="tripinfo_0#1.6 fcd_0#1.6" vType="DEFAULT_VEHTYPE" speedFactor="0.94" vaporized=""/>
    <tripinfo id="3#1.5" depart="90.00" departLane="8_0" departPos="5.10" departSpeed="0.00" departDelay="0.00" arrival="292.00" arrivalLane="2_0" arrivalPos="1136.40" arrivalSpeed="12.42" duration="202.00" routeLength="2276.73" waitingTime="11.00" waitingCount="1" stopTime="0.00" timeLoss="29.96" rerouteNo="0" devices="tripinfo_3#1.5 fcd_3#1.5" vType="DEFAULT_VEHTYPE" speedFactor="1.17" vaporized=""/>
    <tripinfo id="0#1.5" depart="45.00" departLane="1_0" departPos="5.10" departSpeed="0.00" departDelay="0.00" arrival="294.00" arrivalLane="3_0" arrivalPos="1136.40" arrivalSpeed="9.64" duration="249.00" routeLength="2294.90" waitingTime="0.00" waitingCount="0" stopTime="0.00" timeLoss="18.37" rerouteNo="0" devices="tripinfo_0#1.5 fcd_0#1.5" vType="DEFAULT_VEHTYPE" speedFactor="0.88" vaporized=""/>
    <tripinfo id="1#1.2" depart="18.00" departLane="4_0" departPos="5.10" departSpeed="0.00" departDelay="0.00" arrival="297.00" arrivalLane="2_0" arrivalPos="1136.40" arrivalSpeed="8.99" duration="279.00" routeLength="2294.90" waitingTime="23.00" waitingCount="1" stopTime="0.00" timeLoss="50.48" rerouteNo="0" devices="tripinfo_1#1.2 fcd_1#1.2" vType="DEFAULT_VEHTYPE" speedFactor="0.89" vaporized=""/>
    <tripinfo id="1#1.1" depart="9.00" departLane="4_0" departPos="5.10" departSpeed="0.00" departDelay="0.00" arrival="300.00" arrivalLane="2_0" arrivalPos="1136.40" arrivalSpeed="8.27" duration="291.00" routeLength="2294.90" waitingTime="24.00" waitingCount="1" stopTime="0.00" timeLoss="47.77" rerouteNo="0" devices="tripinfo_1#1.1 fcd_1#1.1" vType="DEFAULT_VEHTYPE" speedFactor="0.83" vaporized=""/>
    <tripinfo id="2#1.6" depart="108.00" departLane="5_0" departPos="5.10" departSpeed="0.00" departDelay="0.00" arrival="305.00" arrivalLane="3_0" arrivalPos="1136.40" arrivalSpeed="11.27" duration="197.00" routeLength="2276.73" waitingTime="0.00" waitingCount="0" stopTime="0.00" timeLoss="14.57" rerouteNo="0" devices="tripinfo_2#1.6 fcd_2#1.6" vType="DEFAULT_VEHTYPE" speedFactor="1.10" vaporized=""/>
    <tripinfo id="3#1.3" depart="54.00" departLane="8_0" departPos="5.10" departSpeed="0.00" departDelay="0.00" arrival="308.00" arrivalLane="6_0" arrivalPos="1136.40" arrivalSpeed="10.91" duration="254.00" routeLength="2294.90" waitingTime="34.00" waitingCount="1" stopTime="0.00" timeLoss="53.20" rerouteNo="0" devices="tripinfo_3#1.3 fcd_3#1.3" vType="DEFAULT_VEHTYPE" speedFactor="1.01" vaporized=""/>
    <tripinfo id="2#1.5" depart="90.00" departLane="5_0" departPos="5.10" departSpeed="0.00" departDelay="0.00" arrival="310.00" arrivalLane="7_0" arrivalPos="1136.40" arrivalSpeed="11.28" duration="220.00" routeLength="2294.90" waitingTime="0.00" waitingCount="0" stopTime="0.00" timeLoss="18.68" rerouteNo="0" devices="tripinfo_2#1.5 fcd_2#1.5" vType="DEFAULT_VEHTYPE" speedFactor="1.01" vaporized=""/>
    <tripinfo id="3#1.4" depart="72.00" departLane="8_0" departPos="5.10" departSpeed="0.00" departDelay="0.00" arrival="317.00" arrivalLane="6_0" arrivalPos="1136.40" arrivalSpeed="10.08" duration="245.00" routeLength="2294.90" waitingTime="10.00" waitingCount="1" stopTime="0.00" timeLoss="31.39" rerouteNo="0" devices="tripinfo_3#1.4 fcd_3#1.4" vType="DEFAULT_VEHTYPE" speedFactor="0.95" vaporized=""/>
    <tripinfo id="2#1.4" depart="72.00" departLane="5_0" departPos="5.10" departSpeed="0.00" departDelay="0.00" arrival="319.00" arrivalLane="7_0" arrivalPos="1136.40" arrivalSpeed="9.94" duration="247.00" routeLength="2294.90" waitingTime="4.00" waitingCount="1" stopTime="0.00" timeLoss="26.06" rerouteNo="0" devices="tripinfo_2#1.4 fcd_2#1.4" vType="DEFAULT_VEHTYPE" speedFactor="0.92" vaporized=""/>
    <tripinfo id="1#1.10" depart="90.00" departLane="4_0" departPos="5.10" departSpeed="0.00" departDelay="0.00" arrival="319.00" arrivalLane="2_0" arrivalPos="1136.40" arrivalSpeed="11.92" duration="229.00" routeLength="2294.90" waitingTime="29.00" waitingCount="1" stopTime="0.00" timeLoss="53.49" rerouteNo="0" devices="tripinfo_1#1.10 fcd_1#1.10" vType="DEFAULT_VEHTYPE" speedFactor="1.15" vaporized=""/>
    <tripinfo id="1#1.12" depart="108.00" departLane="4_0" departPos="5.10" departSpeed="0.00" departDelay="0.00" arrival="323.00" arrivalLane="2_0" arrivalPos="1136.40" arrivalSpeed="13.31" duration="215.00" routeLength="2294.90" waitingTime="20.00" waitingCount="1" stopTime="0.00" timeLoss="43.66" rerouteNo="0" devices="tripinfo_1#1.12 fcd_1#1.12" vType="DEFAULT_VEHTYPE" speedFactor="1.18" vaporized=""/>
    <tripinfo id="0#1.14" depart="126.00" departLane="1_0" departPos="5.10" departSpeed="0.00" departDelay="0.00" arrival="325.00" arrivalLane="3_0" arrivalPos="1136.40" arrivalSpeed="12.25" duration="199.00" routeLength="2294.90" waitingTime="0.00" waitingCount="0" stopTime="0.00" timeLoss="13.85" rerouteNo="0" devices="tripinfo_0#1.14 fcd_0#1.14" vType="DEFAULT_VEHTYPE" speedFactor="1.09" vaporized=""/>
    <tripinfo id="0#1.13" depart="117.00" departLane="1_0" departPos="5.10" departSpeed="0.00" departDelay="0.00" arrival="327.00" arrivalLane="3_0" arrivalPos="1136.40" arrivalSpeed="11.30" duration="210.00" routeLength="2294.90" waitingTime="0.00" waitingCount="0" stopTime="0.00" timeLoss="13.73" rerouteNo="0" devices="tripinfo_0#1.13 fcd_0#1.13" vType="DEFAULT_VEHTYPE" speedFactor="1.03" vaporized=""/>
    <tripinfo id="0#1.12" depart="108.00" departLane="1_0" departPos="5.10" departSpeed="0.00" departDelay="0.00" arrival="332.00" arrivalLane="3_0" arrivalPos="1136.40" arrivalSpeed="10.62" duration="224.00" routeLength="2294.90" waitingTime="0.00" waitingCount="0" stopTime="0.00" timeLoss="15.80" rerouteNo="0" devices="tripinfo_0#1.12 fcd_0#1.12" vType="DEFAULT_VEHTYPE" speedFactor="0.97" vaporized=""/>
    <tripinfo id="1#1.11" depart="99.00" departLane="4_0" departPos="5.10" departSpeed="0.00" departDelay="0.00" arrival="338.00" arrivalLane="2_0" arrivalPos="1136.40" arrivalSpeed="11.33" duration="239.00" routeLength="2294.90" waitingTime="18.00" waitingCount="1" stopTime="0.00" timeLoss="40.16" rerouteNo="0" devices="tripinfo_1#1.11 fcd_1#1.11" vType="DEFAULT_VEHTYPE" speedFactor="1.02" vaporized=""/>
    <tripinfo id="1#1.14" depart="126.00" departLane="4_0" departPos="5.10" departSpeed="0.00" departDelay="0.00" arrival="339.00" arrivalLane="2_1" arrivalPos="1136.40" arrivalSpeed="10.80" duration="213.00" routeLength="2294.90" waitingTime="0.00" waitingCount="0" stopTime="0.00" timeLoss="17.85" rerouteNo="0" devices="tripinfo_1#1.14 fcd_1#1.14" vType="DEFAULT_VEHTYPE" speedFactor="1.04" vaporized=""/>
    <tripinfo id="1#1.13" depart="117.00" departLane="4_0" departPos="5.10" departSpeed="0.00" departDelay="0.00" arrival="344.00" arrivalLane="7_0" arrivalPos="1136.40" arrivalSpeed="10.28" duration="227.00" routeLength="2276.73" waitingTime="0.00" waitingCount="0" stopTime="0.00" timeLoss="16.43" rerouteNo="0" devices="tripinfo_1#1.13 fcd_1#1.13" vType="DEFAULT_VEHTYPE" speedFactor="0.96" vaporized=""/>
    <tripinfo id="1#1.7" depart="63.00" departLane="4_0" departPos="5.10" departSpeed="0.00" departDelay="0.00" arrival="345.00" arrivalLane="2_0" arrivalPos="1136.40" arrivalSpeed="8.97" duration="282.00" routeLength="2294.90" waitingTime="31.00" waitingCount="1" stopTime="0.00" timeLoss="54.19" rerouteNo="0" devices="tripinfo_1#1.7 fcd_1#1.7" vType="DEFAULT_VEHTYPE" speedFactor="0.89" vaporized=""/>
    <tripinfo id="1#1.9" depart="81.00" departLane="4_0" departPos="5.10" departSpeed="0.00" departDelay="0.00" arrival="345.00" arrivalLane="2_1" arrivalPos="1136.40" arrivalSpeed="10.30" duration="264.00" routeLength="2294.90" waitingTime="23.00" waitingCount="1" stopTime="0.00" timeLoss="46.99" rerouteNo="0" devices="tripinfo_1#1.9 fcd_1#1.9" vType="DEFAULT_VEHTYPE" speedFactor="0.93" vaporized=""/>
    <tripinfo id="1#1.8" depart="72.00" departLane="4_0" departPos="5.10" departSpeed="0.00" departDelay="0.00" arrival="346.00" arrivalLane="7_1" arrivalPos="1136.40" arrivalSpeed="9.45" duration="274.00" routeLength="2276.73" waitingTime="20.00" waitingCount="1" stopTime="0.00" timeLoss="43.64" rerouteNo="0" devices="tripinfo_1#1.8 fcd_1#1.8" vType="DEFAULT_VEHTYPE" speedFactor="0.87" vaporized=""/>
    <tripinfo id="3#1.8" depart="144.00" departLane="8_0" departPos="5.10" departSpeed="0.00" departDelay="0.00" arrival="349.00" arrivalLane="6_0" arrivalPos="1136.40" arrivalSpeed="12.60" duration="205.00" routeLength="2294.90" waitingTime="15.00" waitingCount="1" stopTime="0.00" timeLoss="31.76" rerouteNo="0" devices="tripinfo_3#1.8 fcd_3#1.8" vType="DEFAULT_VEHTYPE" speedFactor="1.17" vaporized=""/>
    <tripinfo id="3#1.9" depart="162.00" departLane="8_0" departPos="5.10" departSpeed="0.00" departDelay="0.00" arrival="353.00" arrivalLane="6_0" arrivalPos="1136.40" arrivalSpeed="12.88" duration="191.00" routeLength="2294.90" waitingTime="0.00" waitingCount="0" stopTime="0.00" timeLoss="13.60" rerouteNo="0" devices="tripinfo_3#1.9 fcd_3#1.9" vType="DEFAULT_VEHTYPE" speedFactor="1.14" vaporized=""/>
    <tripinfo id="3#1.7" depart="126.00" departLane="8_0" departPos="5.10" departSpeed="0.00" departDelay="0.00" arrival="355.00" arrivalLane="6_0" arrivalPos="1136.40" arrivalSpeed="12.32" duration="229.00" routeLength="2294.90" waitingTime="25.00" waitingCount="1" stopTime="0.00" timeLoss="42.35" rerouteNo="0" devices="tripinfo_3#1.7 fcd_3#1.7" vType="DEFAULT_VEHTYPE" speedFactor="1.09" vaporized=""/>
    <tripinfo id="0#1.11" depart="99.00" departLane="1_0" departPos="5.10" departSpeed="0.00" departDelay="0.00" arrival="356.00" arrivalLane="7_0" arrivalPos="1136.40" arrivalSpeed="10.16" duration="257.00" routeLength="2292.21" waitingTime="34.00" waitingCount="1" stopTime="0.00" timeLoss="53.99" rerouteNo="0" devices="tripinfo_0#1.11 fcd_0#1.11" vType="DEFAULT_VEHTYPE" speedFactor="0.99" vaporized=""/>
    <tripinfo id="2#1.7" depart="126.00" departLane="5_0" departPos="5.10" departSpeed="0.00" departDelay="0.00" arrival="357.00" arrivalLane="3_0" arrivalPos="1136.40" arrivalSpeed="11.64" duration="231.00" routeLength="2276.73" waitingTime="20.00" waitingCount="1" stopTime="0.00" timeLoss="37.98" rerouteNo="0" devices="tripinfo_2#1.7 fcd_2#1.7" vType="DEFAULT_VEHTYPE" speedFactor="1.04" vaporized=""/>
    <tripinfo id="3#1.6" depart="108.00" departLane="8_0" departPos="5.10" departSpeed="0.00" departDelay="0.00" arrival="375.00" arrivalLane="2_0" arrivalPos="1136.40" arrivalSpeed="9.49" duration="267.00" routeLength="2276.73" waitingTime="22.00" waitingCount="1" stopTime="0.00" timeLoss="43.23" rerouteNo="0" devices="tripinfo_3#1.6 fcd_3#1.6" vType="DEFAULT_VEHTYPE" speedFactor="0.90" vaporized=""/>
    <tripinfo id="1#1.17" depart="153.00" departLane="4_0" departPos="5.10" departSpeed="0.00" departDelay="0.00" arrival="377.00" arrivalLane="7_1" arrivalPos="1136.40" arrivalSpeed="11.27" duration="224.00" routeLength="2276.73" waitingTime="16.00" waitingCount="1" stopTime="0.00" timeLoss="39.62" rerouteNo="0" devices="tripinfo_1#1.17 fcd_1#1.17" vType="DEFAULT_VEHTYPE" speedFactor="1.10" vaporized=""/>
    <tripinfo id="0#1.8" depart="72.00" departLane="1_0" departPos="5.10" departSpeed="0.00" departDelay="0.00" arrival="378.00" arrivalLane="7_0" arrivalPos="1136.40" arrivalSpeed="9.14" duration="306.00" routeLength="2292.21" waitingTime="35.00" waitingCount="1" stopTime="0.00" timeLoss="60.85" rerouteNo="0" devices="tripinfo_0#1.8 fcd_0#1.8" vType="DEFAULT_VEHTYPE" speedFactor="0.83" vaporized=""/>
    <tripinfo id="1#1.20" depart="180.00" departLane="4_0" departPos="5.10" departSpeed="0.00" departDelay="0.00" arrival="379.00" arrivalLane="2_0" arrivalPos="1136.40" arrivalSpeed="11.48" duration="199.00" routeLength="2294.90" waitingTime="0.00" waitingCount="0" stopTime="0.00" timeLoss="18.33" rerouteNo="0" devices="tripinfo_1#1.20 fcd_1#1.20" vType="DEFAULT_VEHTYPE" speedFactor="1.12" vaporized=""/>
    <tripinfo id="0#1.15" depart="135.00" departLane="1_0" departPos="5.10" departSpeed="0.00" departDelay="0.00" arrival="386.00" arrivalLane="3_0" arrivalPos="1136.40" arrivalSpeed="10.82" duration="251.00" routeLength="2294.90" waitingTime="28.00" waitingCount="1" stopTime="0.00" timeLoss="47.54" rerouteNo="0" devices="tripinfo_0#1.15 fcd_0#1.15" vType="DEFAULT_VEHTYPE" speedFactor="1.00" vaporized=""/>
    <tripinfo id="0#1.17" depart="153.00" departLane="1_0" departPos="5.10" departSpeed="0.00" departDelay="0.00" arrival="386.00" arrivalLane="3_1" arrivalPos="1136.40" arrivalSpeed="10.97" duration="233.00" routeLength="2294.90" waitingTime="13.00" waitingCount="1" stopTime="0.00" timeLoss="34.06" rerouteNo="0" devices="tripinfo_0#1.17 fcd_0#1.17" vType="DEFAULT_VEHTYPE" speedFactor="1.02" vaporized=""/>
    <tripinfo id="0#1.20" depart="180.00" departLane="1_0" departPos="5.10" departSpeed="0.00" departDelay="0.00" arrival="387.00" arrivalLane="3_0" arrivalPos="1136.40" arrivalSpeed="11.76" duration="207.00" routeLength="2294.90" waitingTime="0.00" waitingCount="0" stopTime="0.00" timeLoss="20.25" rerouteNo="0" devices="tripinfo_0#1.20 fcd_0#1.20" vType="DEFAULT_VEHTYPE" speedFactor="1.08" vaporized=""/>
    <tripinfo id="1#1.18" depart="162.00" departLane="4_0" departPos="5.10" departSpeed="0.00" departDelay="0.00" arrival="389.00" arrivalLane="2_0" arrivalPos="1136.40" arrivalSpeed="11.12" duration="227.00" routeLength="2294.90" waitingTime="0.00" waitingCount="0" stopTime="0.00" timeLoss="23.64" rerouteNo="0" devices="tripinfo_1#1.18 fcd_1#1.18" vType="DEFAULT_VEHTYPE" speedFactor="1.00" vaporized=""/>
    <tripinfo id="0#1.19" depart="171.00" departLane="1_0" departPos="5.10" departSpeed="0.00" departDelay="0.00" arrival="390.00" arrivalLane="3_0" arrivalPos="1136.40" arrivalSpeed="10.88" duration="219.00" routeLength="2294.90" waitingTime="1.00" waitingCount="1" stopTime="0.00" timeLoss="21.34" rerouteNo="0" devices="tripinfo_0#1.19 fcd_0#1.19" vType="DEFAULT_VEHTYPE" speedFactor="1.02" vaporized=""/>
    <tripinfo id="1#1.19" depart="171.00" departLane="4_0" departPos="5.10" departSpeed="0.00" departDelay="0.00" arrival="395.00" arrivalLane="7_1" arrivalPos="1136.40" arrivalSpeed="10.76" duration="224.00" routeLength="2276.73" waitingTime="0.00" waitingCount="0" stopTime="0.00" timeLoss="16.07" rerouteNo="0" devices="tripinfo_1#1.19 fcd_1#1.19" vType="DEFAULT_VEHTYPE" speedFactor="0.97" vaporized=""/>
    <tripinfo id="1#1.15" depart="135.00" departLane="4_0" departPos="5.10" departSpeed="0.00" departDelay="0.00" arrival="396.00" arrivalLane="7_0" arrivalPos="1136.40" arrivalSpeed="9.24" duration="261.00" routeLength="2276.73" waitingTime="18.00" waitingCount="1" stopTime="0.00" timeLoss="37.89" rerouteNo="0" devices="tripinfo_1#1.15 fcd_1#1.15" vType="DEFAULT_VEHTYPE" speedFactor="0.90" vaporized=""/>
    <tripinfo id="1#1.16" depart="144.00" departLane="4_0" departPos="5.10" departSpeed="0.00" departDelay="0.00" arrival="405.00" arrivalLane="2_0" arrivalPos="1136.40" arrivalSpeed="8.93" duration="261.00" routeLength="2294.90" waitingTime="1.00" waitingCount="1" stopTime="0.00" timeLoss="23.04" rerouteNo="0" devices="tripinfo_1#1.16 fcd_1#1.16" vType="DEFAULT_VEHTYPE" speedFactor="0.85" vaporized=""/>
    <tripinfo id="0#1.16" depart="144.00" departLane="1_0" departPos="5.10" departSpeed="0.00" departDelay="0.00" arrival="406.00" arrivalLane="3_0" arrivalPos="1136.40" arrivalSpeed="9.06" duration="262.00" routeLength="2294.90" waitingTime="7.00" waitingCount="1" stopTime="0.00" timeLoss="31.40" rerouteNo="0" devices="tripinfo_0#1.16 fcd_0#1.16" vType="DEFAULT_VEHTYPE" speedFactor="0.88" vaporized=""/>
    <tripinfo id="0#1.18" depart="162.00" departLane="1_0" departPos="5.10" departSpeed="0.00" departDelay="0.00" arrival="407.00" arrivalLane="7_0" arrivalPos="1136.40" arrivalSpeed="11.35" duration="245.00" routeLength="2292.21" waitingTime="25.00" waitingCount="1" stopTime="0.00" timeLoss="43.67" rerouteNo="0" devices="tripinfo_0#1.18 fcd_0#1.18" vType="DEFAULT_VEHTYPE" speedFactor="1.00" vaporized=""/>
    <tripinfo id="2#1.10" depart="180.00" departLane="5_0" departPos="5.10" departSpeed="0.00" departDelay="0.00" arrival="414.00" arrivalLane="3_0" arrivalPos="1136.40" arrivalSpeed="11.13" duration="234.00" routeLength="2276.73" waitingTime="18.00" waitingCount="1" stopTime="0.00" timeLoss="36.31" rerouteNo="0" devices="tripinfo_2#1.10 fcd_2#1.10" vType="DEFAULT_VEHTYPE" speedFactor="1.02" vaporized=""/>
    <tripinfo id="3#1.11" depart="198.00" departLane="8_0" departPos="5.10" departSpeed="0.00" departDelay="0.00" arrival="415.00" arrivalLane="6_0" arrivalPos="1136.40" arrivalSpeed="11.43" duration="217.00" routeLength="2294.90" waitingTime="0.00" waitingCount="0" stopTime="0.00" timeLoss="18.68" rerouteNo="0" devices="tripinfo_3#1.11 fcd_3#1.11" vType="DEFAULT_VEHTYPE" speedFactor="1.02" vaporized=""/>
    <tripinfo id="2#1.11" depart="198.00" departLane="5_0" departPos="5.10" departSpeed="0.00" departDelay="0.00" arrival="416.00" arrivalLane="3_0" arrivalPos="1136.40" arrivalSpeed="10.96" duration="218.00" routeLength="2276.73" waitingTime="6.00" waitingCount="1" stopTime="0.00" timeLoss="24.64" rerouteNo="0" devices="tripinfo_2#1.11 fcd_2#1.11" vType="DEFAULT_VEHTYPE" speedFactor="1.04" vaporized=""/>
    <tripinfo id="3#1.10" depart="180.00" departLane="8_0" departPos="5.10" departSpeed="0.00" departDelay="0.00" arrival="419.00" arrivalLane="2_0" arrivalPos="1136.40" arrivalSpeed="10.37" duration="239.00" routeLength="2276.73" waitingTime="15.00" waitingCount="1" stopTime="0.00" timeLoss="34.89" rerouteNo="0" devices="tripinfo_3#1.10 fcd_3#1.10" vType="DEFAULT_VEHTYPE" speedFactor="0.99" vaporized=""/>
    <tripinfo id="2#1.9" depart="162.00" departLane="5_0" departPos="5.10" departSpeed="0.00" departDelay="0.00" arrival="433.00" arrivalLane="7_0" arrivalPos="1136.40" arrivalSpeed="9.40" duration="271.00" routeLength="2294.90" waitingTime="24.00" waitingCount="1" stopTime="0.00" timeLoss="45.82" rerouteNo="0" devices="tripinfo_2#1.9 fcd_2#1.9" vType="DEFAULT_VEHTYPE" speedFactor="0.90" vaporized=""/>
    <tripinfo id="3#1.12" depart="216.00" departLane="8_0" departPos="5.10" departSpeed="0.00" departDelay="0.00" arrival="437.00" arrivalLane="2_0" arrivalPos="1136.40" arrivalSpeed="11.01" duration="221.00" routeLength="2276.73" waitingTime="0.00" waitingCount="0" stopTime="0.00" timeLoss="15.84" rerouteNo="0" devices="tripinfo_3#1.12 fcd_3#1.12" vType="DEFAULT_VEHTYPE" speedFactor="0.98" vaporized=""/>
    <tripinfo id="2#1.8" depart="144.00" departLane="5_0" departPos="5.10" departSpeed="0.00" departDelay="0.00" arrival="438.00" arrivalLane="7_0" arrivalPos="1136.40" arrivalSpeed="8.85" duration="294.00" routeLength="2294.90" waitingTime="34.00" waitingCount="1" stopTime="0.00" timeLoss="57.04" rerouteNo="0" devices="tripinfo_2#1.8 fcd_2#1.8" vType="DEFAULT_VEHTYPE" speedFactor="0.85" vaporized=""/>
    <tripinfo id="0#1.23" depart="207.00" departLane="1_0" departPos="5.10" departSpeed="0.00" departDelay="0.00" arrival="441.00" arrivalLane="3_0" arrivalPos="1136.40" arrivalSpeed="11.40" duration="234.00" routeLength="2294.90" waitingTime="15.00" waitingCount="1" stopTime="0.00" timeLoss="35.58" rerouteNo="0" devices="tripinfo_0#1.23 fcd_0#1.23" vType="DEFAULT_VEHTYPE" speedFactor="1.02" vaporized=""/>
    <tripinfo id="1#1.26" depart="234.00" departLane="4_0" departPos="5.10" departSpeed="0.00" departDelay="0.00" arrival="442.00" arrivalLane="2_0" arrivalPos="1136.40" arrivalSpeed="11.66" duration="208.00" routeLength="2294.90" waitingTime="0.00" waitingCount="0" stopTime="0.00" timeLoss="22.12" rerouteNo="0" devices="tripinfo_1#1.26 fcd_1#1.26" vType="DEFAULT_VEHTYPE" speedFactor="1.09" vaporized=""/>
    <tripinfo id="0#1.25" depart="225.00" departLane="1_0" departPos="5.10" departSpeed="0.00" departDelay="0.00" arrival="445.00" arrivalLane="3_0" arrivalPos="1136.40" arrivalSpeed="11.53" duration="220.00" routeLength="2294.90" waitingTime="0.00" waitingCount="0" stopTime="0.00" timeLoss="23.66" rerouteNo="0" devices="tripinfo_0#1.25 fcd_0#1.25" vType="DEFAULT_VEHTYPE" speedFactor="1.03" vaporized=""/>
    <tripinfo id="0#1.21" depart="189.00" departLane="1_0" departPos="5.10" departSpeed="0.00" departDelay="0.00" arrival="448.00" arrivalLane="3_0" arrivalPos="1136.40" arrivalSpeed="10.00" duration="259.00" routeLength="2294.90" waitingTime="21.00" waitingCount="1" stopTime="0.00" timeLoss="43.36" rerouteNo="0" devices="tripinfo_0#1.21 fcd_0#1.21" vType="DEFAULT_VEHTYPE" speedFactor="0.94" vaporized=""/>