<?xml version="1.0" encoding="UTF-8"?>

<!-- generated on 2023-05-13 20:54:56 by Eclipse SUMO sumo Version 1.16.0
<configuration xmlns:xsi="http://www.w3.org/2001/XMLSchema-instance" xsi:noNamespaceSchemaLocation="http://sumo.dlr.de/xsd/sumoConfiguration.xsd">

    <input>
        <net-file value="./SUMO_Input/./net/Test4.net.xml"/>
        <route-files value="./SUMO_Input/./route/Test4.rou.xml"/>
        <additional-files value="./SUMO_Input/dets.add.xml"/>
    </input>

    <output>
        <fcd-output value="./SUMO_Input/../SUMO_Output/fcd.xml"/>
        <tripinfo-output value="./SUMO_Input/../SUMO_Output/tripinfos.xml"/>
        <tripinfo-output.write-unfinished value="true"/>
        <statistic-output value="SUMO_Output/statistic.xml"/>
    </output>

    <time>
        <begin value="0"/>
        <end value="10000"/>
    </time>

    <report>
        <duration-log.statistics value="true"/>
    </report>

    <traci_server>
        <remote-port value="59696"/>
    </traci_server>

    <gui_only>
        <gui-settings-file value="./SUMO_Input/Test4.settings.xml"/>
    </gui_only>

</configuration>
-->

<tripinfos xmlns:xsi="http://www.w3.org/2001/XMLSchema-instance" xsi:noNamespaceSchemaLocation="http://sumo.dlr.de/xsd/tripinfo_file.xsd">
    <tripinfo id="3#0.0" depart="0.00" departLane="8_0" departPos="5.10" departSpeed="0.00" departDelay="0.00" arrival="208.00" arrivalLane="6_0" arrivalPos="1136.40" arrivalSpeed="12.25" duration="208.00" routeLength="2294.90" waitingTime="3.00" waitingCount="1" stopTime="0.00" timeLoss="20.58" rerouteNo="0" devices="tripinfo_3#0.0 fcd_3#0.0" vType="DEFAULT_VEHTYPE" speedFactor="1.08" vaporized=""/>
    <tripinfo id="2#0.0" depart="0.00" departLane="5_0" departPos="5.10" departSpeed="0.00" departDelay="0.00" arrival="224.00" arrivalLane="2_0" arrivalPos="1136.40" arrivalSpeed="11.46" duration="224.00" routeLength="2292.21" waitingTime="7.00" waitingCount="1" stopTime="0.00" timeLoss="24.12" rerouteNo="0" devices="tripinfo_2#0.0 fcd_2#0.0" vType="DEFAULT_VEHTYPE" speedFactor="1.01" vaporized=""/>
    <tripinfo id="0#0.0" depart="0.00" departLane="1_0" departPos="5.10" departSpeed="0.00" departDelay="0.00" arrival="225.00" arrivalLane="6_0" arrivalPos="1136.40" arrivalSpeed="11.54" duration="225.00" routeLength="2276.73" waitingTime="19.00" waitingCount="1" stopTime="0.00" timeLoss="35.19" rerouteNo="0" devices="tripinfo_0#0.0 fcd_0#0.0" vType="DEFAULT_VEHTYPE" speedFactor="1.06" vaporized=""/>
    <tripinfo id="2#0.1" depart="36.00" departLane="5_0" departPos="5.10" departSpeed="0.00" departDelay="0.00" arrival="243.00" arrivalLane="7_0" arrivalPos="1136.40" arrivalSpeed="10.61" duration="207.00" routeLength="2294.90" waitingTime="0.00" waitingCount="0" stopTime="0.00" timeLoss="13.04" rerouteNo="0" devices="tripinfo_2#0.1 fcd_2#0.1" vType="DEFAULT_VEHTYPE" speedFactor="1.05" vaporized=""/>
    <tripinfo id="1#0.0" depart="0.00" departLane="4_0" departPos="5.10" departSpeed="0.00" departDelay="0.00" arrival="250.00" arrivalLane="6_0" arrivalPos="1136.40" arrivalSpeed="10.65" duration="250.00" routeLength="2292.21" waitingTime="13.00" waitingCount="1" stopTime="0.00" timeLoss="34.26" rerouteNo="0" devices="tripinfo_1#0.0 fcd_1#0.0" vType="DEFAULT_VEHTYPE" speedFactor="0.94" vaporized=""/>
    <tripinfo id="0#0.1" depart="36.00" departLane="1_0" departPos="5.10" departSpeed="0.00" departDelay="0.00" arrival="261.00" arrivalLane="3_0" arrivalPos="1136.40" arrivalSpeed="11.68" duration="225.00" routeLength="2294.90" waitingTime="10.00" waitingCount="1" stopTime="0.00" timeLoss="28.56" rerouteNo="0" devices="tripinfo_0#0.1 fcd_0#0.1" vType="DEFAULT_VEHTYPE" speedFactor="1.03" vaporized=""/>
    <tripinfo id="2#0.2" depart="72.00" departLane="5_0" departPos="5.10" departSpeed="0.00" departDelay="0.00" arrival="281.00" arrivalLane="2_0" arrivalPos="1136.40" arrivalSpeed="11.63" duration="209.00" routeLength="2292.21" waitingTime="6.00" waitingCount="1" stopTime="0.00" timeLoss="23.21" rerouteNo="0" devices="tripinfo_2#0.2 fcd_2#0.2" vType="DEFAULT_VEHTYPE" speedFactor="1.09" vaporized=""/>
    <tripinfo id="3#0.1" depart="36.00" departLane="8_0" departPos="5.10" departSpeed="0.00" departDelay="0.00" arrival="304.00" arrivalLane="3_0" arrivalPos="1136.40" arrivalSpeed="8.92" duration="268.00" routeLength="2292.21" waitingTime="20.00" waitingCount="1" stopTime="0.00" timeLoss="39.90" rerouteNo="0" devices="tripinfo_3#0.1 fcd_3#0.1" vType="DEFAULT_VEHTYPE" speedFactor="0.89" vaporized=""/>
    <tripinfo id="0#0.2" depart="72.00" departLane="1_0" departPos="5.10" departSpeed="0.00" departDelay="0.00" arrival="304.00" arrivalLane="3_1" arrivalPos="1136.40" arrivalSpeed="9.99" duration="232.00" routeLength="2294.90" waitingTime="0.00" waitingCount="0" stopTime="0.00" timeLoss="16.17" rerouteNo="0" devices="tripinfo_0#0.2 fcd_0#0.2" vType="DEFAULT_VEHTYPE" speedFactor="0.94" vaporized=""/>
    <tripinfo id="3#0.2" depart="72.00" departLane="8_0" departPos="5.10" departSpeed="0.00" departDelay="0.00" arrival="310.00" arrivalLane="6_0" arrivalPos="1136.40" arrivalSpeed="11.09" duration="238.00" routeLength="2294.90" waitingTime="21.00" waitingCount="1" stopTime="0.00" timeLoss="40.84" rerouteNo="0" devices="tripinfo_3#0.2 fcd_3#0.2" vType="DEFAULT_VEHTYPE" speedFactor="1.03" vaporized=""/>
    <tripinfo id="1#0.3" depart="108.00" departLane="4_0" departPos="5.10" departSpeed="0.00" departDelay="0.00" arrival="316.00" arrivalLane="2_0" arrivalPos="1136.40" arrivalSpeed="12.49" duration="208.00" routeLength="2294.90" waitingTime="11.00" waitingCount="1" stopTime="0.00" timeLoss="27.87" rerouteNo="0" devices="tripinfo_1#0.3 fcd_1#0.3" vType="DEFAULT_VEHTYPE" speedFactor="1.12" vaporized=""/>
    <tripinfo id="1#0.1" depart="36.00" departLane="4_0" departPos="5.10" departSpeed="0.00" departDelay="0.00" arrival="320.00" arrivalLane="2_0" arrivalPos="1136.40" arrivalSpeed="9.29" duration="284.00" routeLength="2294.90" waitingTime="17.00" waitingCount="1" stopTime="0.00" timeLoss="40.07" rerouteNo="0" devices="tripinfo_1#0.1 fcd_1#0.1" vType="DEFAULT_VEHTYPE" speedFactor="0.83" vaporized=""/>
    <tripinfo id="0#0.3" depart="108.00" departLane="1_0" departPos="5.10" departSpeed="0.00" departDelay="0.00" arrival="324.00" arrivalLane="3_0" arrivalPos="1136.40" arrivalSpeed="11.27" duration="216.00" routeLength="2294.90" waitingTime="2.00" waitingCount="1" stopTime="0.00" timeLoss="22.46" rerouteNo="0" devices="tripinfo_0#0.3 fcd_0#0.3" vType="DEFAULT_VEHTYPE" speedFactor="1.05" vaporized=""/>
    <tripinfo id="3#0.4" depart="144.00" departLane="8_0" departPos="5.10" departSpeed="0.00" departDelay="0.00" arrival="330.00" arrivalLane="6_0" arrivalPos="1136.40" arrivalSpeed="12.78" duration="186.00" routeLength="2294.90" waitingTime="0.00" waitingCount="0" stopTime="0.00" timeLoss="11.07" rerouteNo="0" devices="tripinfo_3#0.4 fcd_3#0.4" vType="DEFAULT_VEHTYPE" speedFactor="1.16" vaporized=""/>
    <tripinfo id="2#0.3" depart="108.00" departLane="5_0" departPos="5.10" departSpeed="0.00" departDelay="0.00" arrival="346.00" arrivalLane="7_0" arrivalPos="1136.40" arrivalSpeed="10.94" duration="238.00" routeLength="2294.90" waitingTime="15.00" waitingCount="1" stopTime="0.00" timeLoss="33.38" rerouteNo="0" devices="tripinfo_2#0.3 fcd_2#0.3" vType="DEFAULT_VEHTYPE" speedFactor="0.99" vaporized=""/>
    <tripinfo id="1#0.2" depart="72.00" departLane="4_0" departPos="5.10" departSpeed="0.00" departDelay="0.00" arrival="359.00" arrivalLane="6_0" arrivalPos="1136.40" arrivalSpeed="8.95" duration="287.00" routeLength="2292.21" waitingTime="27.00" waitingCount="1" stopTime="0.00" timeLoss="50.67" rerouteNo="0" devices="tripinfo_1#0.2 fcd_1#0.2" vType="DEFAULT_VEHTYPE" speedFactor="0.86" vaporized=""/>
    <tripinfo id="3#0.3" depart="108.00" departLane="8_0" departPos="5.10" departSpeed="0.00" departDelay="0.00" arrival="363.00" arrivalLane="3_0" arrivalPos="1136.40" arrivalSpeed="10.25" duration="255.00" routeLength="2292.21" waitingTime="16.00" waitingCount="1" stopTime="0.00" timeLoss="36.92" rerouteNo="0" devices="tripinfo_3#0.3 fcd_3#0.3" vType="DEFAULT_VEHTYPE" speedFactor="0.93" vaporized=""/>
    <tripinfo id="1#0.4" depart="144.00" departLane="4_0" departPos="5.10" departSpeed="0.00" departDelay="0.00" arrival="376.00" arrivalLane="7_0" arrivalPos="1136.40" arrivalSpeed="9.94" duration="232.00" routeLength="2276.73" waitingTime="0.00" waitingCount="0" stopTime="0.00" timeLoss="18.02" rerouteNo="0" devices="tripinfo_1#0.4 fcd_1#0.4" vType="DEFAULT_VEHTYPE" speedFactor="0.94" vaporized=""/>
    <tripinfo id="2#0.4" depart="144.00" departLane="5_0" departPos="5.10" departSpeed="0.00" departDelay="0.00" arrival="385.00" arrivalLane="7_0" arrivalPos="1136.40" arrivalSpeed="10.37" duration="241.00" routeLength="2294.90" waitingTime="3.00" waitingCount="1" stopTime="0.00" timeLoss="24.31" rerouteNo="0" devices="tripinfo_2#0.4 fcd_2#0.4" vType="DEFAULT_VEHTYPE" speedFactor="0.94" vaporized=""/>
    <tripinfo id="0#0.5" depart="180.00" departLane="1_0" departPos="5.10" departSpeed="0.00" departDelay="0.00" arrival="392.00" arrivalLane="3_0" arrivalPos="1136.40" arrivalSpeed="11.11" duration="212.00" routeLength="2294.90" waitingTime="0.00" waitingCount="0" stopTime="0.00" timeLoss="13.31" rerouteNo="0" devices="tripinfo_0#0.5 fcd_0#0.5" vType="DEFAULT_VEHTYPE" speedFactor="1.02" vaporized=""/>
    <tripinfo id="1#0.5" depart="180.00" departLane="4_0" departPos="5.10" departSpeed="0.00" departDelay="0.00" arrival="394.00" arrivalLane="2_0" arrivalPos="1136.40" arrivalSpeed="10.25" duration="214.00" routeLength="2294.90" waitingTime="0.00" waitingCount="0" stopTime="0.00" timeLoss="13.95" rerouteNo="0" devices="tripinfo_1#0.5 fcd_1#0.5" vType="DEFAULT_VEHTYPE" speedFactor="1.01" vaporized=""/>
    <tripinfo id="0#0.4" depart="144.00" departLane="1_0" departPos="5.10" departSpeed="0.00" departDelay="0.00" arrival="408.00" arrivalLane="3_0" arrivalPos="1136.40" arrivalSpeed="9.51" duration="264.00" routeLength="2294.90" waitingTime="11.00" waitingCount="1" stopTime="0.00" timeLoss="33.22" rerouteNo="0" devices="tripinfo_0#0.4 fcd_0#0.4" vType="DEFAULT_VEHTYPE" speedFactor="0.88" vaporized=""/>
    <tripinfo id="2#0.5" depart="180.00" departLane="5_0" departPos="5.10" departSpeed="0.00" departDelay="0.00" arrival="411.00" arrivalLane="7_0" arrivalPos="1136.40" arrivalSpeed="10.44" duration="231.00" routeLength="2294.90" waitingTime="5.00" waitingCount="1" stopTime="0.00" timeLoss="23.43" rerouteNo="0" devices="tripinfo_2#0.5 fcd_2#0.5" vType="DEFAULT_VEHTYPE" speedFactor="0.97" vaporized=""/>
    <tripinfo id="0#1.1" depart="229.00" departLane="1_0" departPos="5.10" departSpeed="0.00" departDelay="0.20" arrival="412.00" arrivalLane="3_0" arrivalPos="1136.40" arrivalSpeed="12.76" duration="183.00" routeLength="2294.90" waitingTime="0.00" waitingCount="0" stopTime="0.00" timeLoss="11.34" rerouteNo="0" devices="tripinfo_0#1.1 fcd_0#1.1" vType="DEFAULT_VEHTYPE" speedFactor="1.18" vaporized=""/>
    <tripinfo id="3#0.5" depart="180.00" departLane="8_0" departPos="5.10" departSpeed="0.00" departDelay="0.00" arrival="424.00" arrivalLane="6_0" arrivalPos="1136.40" arrivalSpeed="10.04" duration="244.00" routeLength="2294.90" waitingTime="0.00" waitingCount="0" stopTime="0.00" timeLoss="16.56" rerouteNo="0" devices="tripinfo_3#0.5 fcd_3#0.5" vType="DEFAULT_VEHTYPE" speedFactor="0.89" vaporized=""/>
    <tripinfo id="2#1.1" depart="224.00" departLane="5_0" departPos="5.10" departSpeed="0.00" departDelay="0.00" arrival="431.00" arrivalLane="7_0" arrivalPos="1136.40" arrivalSpeed="12.32" duration="207.00" routeLength="2294.90" waitingTime="8.00" waitingCount="1" stopTime="0.00" timeLoss="27.88" rerouteNo="0" devices="tripinfo_2#1.1 fcd_2#1.1" vType="DEFAULT_VEHTYPE" speedFactor="1.13" vaporized=""/>
    <tripinfo id="3#1.2" depart="248.00" departLane="8_0" departPos="5.10" departSpeed="0.00" departDelay="0.00" arrival="433.00" arrivalLane="2_0" arrivalPos="1136.40" arrivalSpeed="12.21" duration="185.00" routeLength="2276.73" waitingTime="0.00" waitingCount="0" stopTime="0.00" timeLoss="13.55" rerouteNo="0" devices="tripinfo_3#1.2 fcd_3#1.2" vType="DEFAULT_VEHTYPE" speedFactor="1.17" vaporized=""/>
    <tripinfo id="1#1.1" depart="229.00" departLane="4_0" departPos="5.10" departSpeed="0.00" departDelay="0.20" arrival="442.00" arrivalLane="2_0" arrivalPos="1136.40" arrivalSpeed="12.33" duration="213.00" routeLength="2294.90" waitingTime="20.00" waitingCount="1" stopTime="0.00" timeLoss="37.43" rerouteNo="0" devices="tripinfo_1#1.1 fcd_1#1.1" vType="DEFAULT_VEHTYPE" speedFactor="1.15" vaporized=""/>
    <tripinfo id="3#1.0" depart="200.00" departLane="8_0" departPos="5.10" departSpeed="0.00" departDelay="0.00" arrival="446.00" arrivalLane="6_0" arrivalPos="1136.40" arrivalSpeed="10.27" duration="246.00" routeLength="2294.90" waitingTime="12.00" waitingCount="1" stopTime="0.00" timeLoss="32.61" rerouteNo="0" devices="tripinfo_3#1.0 fcd_3#1.0" vType="DEFAULT_VEHTYPE" speedFactor="0.95" vaporized=""/>
    <tripinfo id="1#1.0" depart="200.00" departLane="4_0" departPos="5.10" departSpeed="0.00" departDelay="0.00" arrival="450.00" arrivalLane="7_0" arrivalPos="1136.40" arrivalSpeed="9.85" duration="250.00" routeLength="2276.73" waitingTime="0.00" waitingCount="0" stopTime="0.00" timeLoss="19.52" rerouteNo="0" devices="tripinfo_1#1.0 fcd_1#1.0" vType="DEFAULT_VEHTYPE" speedFactor="0.87" vaporized=""/>
    <tripinfo id="2#1.0" depart="200.00" departLane="5_0" departPos="5.10" departSpeed="0.00" departDelay="0.00" arrival="450.00" arrivalLane="7_1" arrivalPos="1136.40" arrivalSpeed="9.80" duration="250.00" routeLength="2294.90" waitingTime="8.00" waitingCount="1" stopTime="0.00" timeLoss="29.47" rerouteNo="0" devices="tripinfo_2#1.0 fcd_2#1.0" vType="DEFAULT_VEHTYPE" speedFactor="0.92" vaporized=""/>
    <tripinfo id="3#1.3" depart="272.00" departLane="8_0" departPos="5.10" departSpeed="0.00" departDelay="0.00" arrival="455.00" arrivalLane="6_0" arrivalPos="1136.40" arrivalSpeed="13.14" duration="183.00" routeLength="2294.90" waitingTime="0.00" waitingCount="0" stopTime="0.00" timeLoss="10.93" rerouteNo="0" devices="tripinfo_3#1.3 fcd_3#1.3" vType="DEFAULT_VEHTYPE" speedFactor="1.18" vaporized=""/>
    <tripinfo id="3#1.1" depart="224.00" departLane="8_0" departPos="5.10" departSpeed="0.00" departDelay="0.00" arrival="458.00" arrivalLane="3_0" arrivalPos="1136.40" arrivalSpeed="10.35" duration="234.00" routeLength="2292.21" waitingTime="0.00" waitingCount="0" stopTime="0.00" timeLoss="16.48" rerouteNo="0" devices="tripinfo_3#1.1 fcd_3#1.1" vType="DEFAULT_VEHTYPE" speedFactor="0.93" vaporized=""/>
    <tripinfo id="2#1.2" depart="248.00" departLane="5_0" departPos="5.10" departSpeed="0.00" departDelay="0.00" arrival="472.00" arrivalLane="7_0" arrivalPos="1136.40" arrivalSpeed="10.72" duration="224.00" routeLength="2294.90" waitingTime="2.00" waitingCount="1" stopTime="0.00" timeLoss="22.70" rerouteNo="0" devices="tripinfo_2#1.2 fcd_2#1.2" vType="DEFAULT_VEHTYPE" speedFactor="1.01" vaporized=""/>
    <tripinfo id="0#1.3" depart="287.00" departLane="1_0" departPos="5.10" departSpeed="0.00" departDelay="0.60" arrival="482.00" arrivalLane="3_0" arrivalPos="1136.40" arrivalSpeed="11.77" duration="195.00" routeLength="2294.90" waitingTime="0.00" waitingCount="0" stopTime="0.00" timeLoss="11.55" rerouteNo="0" devices="tripinfo_0#1.3 fcd_0#1.3" vType="DEFAULT_VEHTYPE" speedFactor="1.10" vaporized=""/>
    <tripinfo id="1#1.2" depart="258.00" departLane="4_0" departPos="5.10" departSpeed="0.00" departDelay="0.40" arrival="488.00" arrivalLane="2_0" arrivalPos="1136.40" arrivalSpeed="10.93" duration="230.00" routeLength="2294.90" waitingTime="13.00" waitingCount="1" stopTime="0.00" timeLoss="31.75" rerouteNo="0" devices="tripinfo_1#1.2 fcd_1#1.2" vType="DEFAULT_VEHTYPE" speedFactor="1.02" vaporized=""/>
    <tripinfo id="0#1.0" depart="200.00" departLane="1_0" departPos="5.10" departSpeed="0.00" departDelay="0.00" arrival="491.00" arrivalLane="7_0" arrivalPos="1136.40" arrivalSpeed="8.31" duration="291.00" routeLength="2292.21" waitingTime="22.00" waitingCount="1" stopTime="0.00" timeLoss="46.13" rerouteNo="0" devices="tripinfo_0#1.0 fcd_0#1.0" vType="DEFAULT_VEHTYPE" speedFactor="0.83" vaporized=""/>
    <tripinfo id="0#1.2" depart="258.00" departLane="1_0" departPos="5.10" departSpeed="0.00" departDelay="0.40" arrival="501.00" arrivalLane="7_0" arrivalPos="1136.40" arrivalSpeed="10.43" duration="243.00" routeLength="2292.21" waitingTime="21.00" waitingCount="1" stopTime="0.00" timeLoss="39.81" rerouteNo="0" devices="tripinfo_0#1.2 fcd_0#1.2" vType="DEFAULT_VEHTYPE" speedFactor="0.99" vaporized=""/>
    <tripinfo id="2#1.4" depart="296.00" departLane="5_0" departPos="5.10" departSpeed="0.00" departDelay="0.00" arrival="506.00" arrivalLane="7_0" arrivalPos="1136.40" arrivalSpeed="11.25" duration="210.00" routeLength="2294.90" waitingTime="0.00" waitingCount="0" stopTime="0.00" timeLoss="13.58" rerouteNo="0" devices="tripinfo_2#1.4 fcd_2#1.4" vType="DEFAULT_VEHTYPE" speedFactor="1.03" vaporized=""/>
    <tripinfo id="2#1.3" depart="272.00" departLane="5_0" departPos="5.10" departSpeed="0.00" departDelay="0.00" arrival="511.00" arrivalLane="7_0" arrivalPos="1136.40" arrivalSpeed="10.58" duration="239.00" routeLength="2294.90" waitingTime="11.00" waitingCount="1" stopTime="0.00" timeLoss="30.52" rerouteNo="0" devices="tripinfo_2#1.3 fcd_2#1.3" vType="DEFAULT_VEHTYPE" speedFactor="0.97" vaporized=""/>
    <tripinfo id="0#1.4" depart="316.00" departLane="1_0" departPos="5.10" departSpeed="0.00" departDelay="0.80" arrival="515.00" arrivalLane="3_0" arrivalPos="1136.40" arrivalSpeed="12.03" duration="199.00" routeLength="2294.90" waitingTime="0.00" waitingCount="0" stopTime="0.00" timeLoss="13.09" rerouteNo="0" devices="tripinfo_0#1.4 fcd_0#1.4" vType="DEFAULT_VEHTYPE" speedFactor="1.09" vaporized=""/>
    <tripinfo id="1#1.4" depart="316.00" departLane="4_0" departPos="5.10" departSpeed="0.00" departDelay="0.80" arrival="525.00" arrivalLane="2_0" arrivalPos="1136.40" arrivalSpeed="10.70" duration="209.00" routeLength="2294.90" waitingTime="0.00" waitingCount="0" stopTime="0.00" timeLoss="13.81" rerouteNo="0" devices="tripinfo_1#1.4 fcd_1#1.4" vType="DEFAULT_VEHTYPE" speedFactor="1.04" vaporized=""/>
    <tripinfo id="3#1.5" depart="320.00" departLane="8_0" departPos="5.10" departSpeed="0.00" departDelay="0.00" arrival="535.00" arrivalLane="6_0" arrivalPos="1136.40" arrivalSpeed="11.83" duration="215.00" routeLength="2294.90" waitingTime="11.00" waitingCount="1" stopTime="0.00" timeLoss="29.23" rerouteNo="0" devices="tripinfo_3#1.5 fcd_3#1.5" vType="DEFAULT_VEHTYPE" speedFactor="1.09" vaporized=""/>
    <tripinfo id="2#1.5" depart="320.00" departLane="5_0" departPos="5.10" departSpeed="0.00" departDelay="0.00" arrival="536.00" arrivalLane="3_0" arrivalPos="1136.40" arrivalSpeed="10.81" duration="216.00" routeLength="2276.73" waitingTime="4.00" waitingCount="1" stopTime="0.00" timeLoss="23.14" rerouteNo="0" devices="tripinfo_2#1.5 fcd_2#1.5" vType="DEFAULT_VEHTYPE" speedFactor="1.04" vaporized=""/>
    <tripinfo id="1#1.3" depart="287.00" departLane="4_0" departPos="5.10" departSpeed="0.00" departDelay="0.60" arrival="538.00" arrivalLane="2_0" arrivalPos="1136.40" arrivalSpeed="9.32" duration="251.00" routeLength="2294.90" waitingTime="4.00" waitingCount="1" stopTime="0.00" timeLoss="26.07" rerouteNo="0" devices="tripinfo_1#1.3 fcd_1#1.3" vType="DEFAULT_VEHTYPE" speedFactor="0.90" vaporized=""/>
    <tripinfo id="3#1.4" depart="296.00" departLane="8_0" departPos="5.10" departSpeed="0.00" departDelay="0.00" arrival="548.00" arrivalLane="6_0" arrivalPos="1136.40" arrivalSpeed="10.44" duration="252.00" routeLength="2294.90" waitingTime="20.00" waitingCount="1" stopTime="0.00" timeLoss="40.01" rerouteNo="0" devices="tripinfo_3#1.4 fcd_3#1.4" vType="DEFAULT_VEHTYPE" speedFactor="0.96" vaporized=""/>
    <tripinfo id="3#1.7" depart="368.00" departLane="8_0" departPos="5.10" departSpeed="0.00" departDelay="0.00" arrival="561.00" arrivalLane="6_0" arrivalPos="1136.40" arrivalSpeed="13.27" duration="193.00" routeLength="2294.90" waitingTime="1.00" waitingCount="1" stopTime="0.00" timeLoss="19.99" rerouteNo="0" devices="tripinfo_3#1.7 fcd_3#1.7" vType="DEFAULT_VEHTYPE" speedFactor="1.17" vaporized=""/>
    <tripinfo id="0#1.5" depart="344.00" departLane="1_0" departPos="5.10" departSpeed="0.00" departDelay="0.00" arrival="562.00" arrivalLane="3_0" arrivalPos="1136.40" arrivalSpeed="10.50" duration="218.00" routeLength="2294.90" waitingTime="0.00" waitingCount="0" stopTime="0.00" timeLoss="14.69" rerouteNo="0" devices="tripinfo_0#1.5 fcd_0#1.5" vType="DEFAULT_VEHTYPE" speedFactor="1.00" vaporized=""/>
    <tripinfo id="1#1.6" depart="373.00" departLane="4_0" departPos="5.10" departSpeed="0.00" departDelay="0.20" arrival="587.00" arrivalLane="7_0" arrivalPos="1136.40" arrivalSpeed="11.76" duration="214.00" routeLength="2276.73" waitingTime="13.00" waitingCount="1" stopTime="0.00" timeLoss="30.37" rerouteNo="0" devices="tripinfo_1#1.6 fcd_1#1.6" vType="DEFAULT_VEHTYPE" speedFactor="1.10" vaporized=""/>
    <tripinfo id="0#1.6" depart="373.00" departLane="1_0" departPos="5.10" departSpeed="0.00" departDelay="0.20" arrival="595.00" arrivalLane="3_0" arrivalPos="1136.40" arrivalSpeed="11.44" duration="222.00" routeLength="2294.90" waitingTime="5.00" waitingCount="1" stopTime="0.00" timeLoss="22.86" rerouteNo="0" devices="tripinfo_0#1.6 fcd_0#1.6" vType="DEFAULT_VEHTYPE" speedFactor="1.02" vaporized=""/>
    <tripinfo id="3#1.6" depart="344.00" departLane="8_0" departPos="5.10" departSpeed="0.00" departDelay="0.00" arrival="601.00" arrivalLane="6_0" arrivalPos="1136.40" arrivalSpeed="8.51" duration="257.00" routeLength="2294.90" waitingTime="0.00" waitingCount="0" stopTime="0.00" timeLoss="18.61" rerouteNo="0" devices="tripinfo_3#1.6 fcd_3#1.6" vType="DEFAULT_VEHTYPE" speedFactor="0.85" vaporized=""/>
    <tripinfo id="2#1.6" depart="344.00" departLane="5_0" departPos="5.10" departSpeed="0.00" departDelay="0.00" arrival="605.00" arrivalLane="2_0" arrivalPos="1136.40" arrivalSpeed="9.15" duration="261.00" routeLength="2292.21" waitingTime="9.00" waitingCount="1" stopTime="0.00" timeLoss="30.25" rerouteNo="0" devices="tripinfo_2#1.6 fcd_2#1.6" vType="DEFAULT_VEHTYPE" speedFactor="0.88" vaporized=""/>
    <tripinfo id="1#1.5" depart="344.00" departLane="4_0" departPos="5.10" departSpeed="0.00" departDelay="0.00" arrival="607.00" arrivalLane="7_0" arrivalPos="1136.40" arrivalSpeed="9.14" duration="263.00" routeLength="2276.73" waitingTime="19.00" waitingCount="1" stopTime="0.00" timeLoss="39.64" rerouteNo="0" devices="tripinfo_1#1.5 fcd_1#1.5" vType="DEFAULT_VEHTYPE" speedFactor="0.90" vaporized=""/>
    <tripinfo id="2#2.0" depart="400.00" departLane="5_0" departPos="5.10" departSpeed="0.00" departDelay="0.00" arrival="613.00" arrivalLane="3_0" arrivalPos="1136.40" arrivalSpeed="11.35" duration="213.00" routeLength="2276.73" waitingTime="0.00" waitingCount="0" stopTime="0.00" timeLoss="16.08" rerouteNo="0" devices="tripinfo_2#2.0 fcd_2#2.0" vType="DEFAULT_VEHTYPE" speedFactor="1.02" vaporized=""/>
    <tripinfo id="3#1.8" depart="392.00" departLane="8_0" departPos="5.10" departSpeed="0.00" departDelay="0.00" arrival="614.00" arrivalLane="6_0" arrivalPos="1136.40" arrivalSpeed="10.69" duration="222.00" routeLength="2294.90" waitingTime="0.00" waitingCount="0" stopTime="0.00" timeLoss="18.75" rerouteNo="0" devices="tripinfo_3#1.8 fcd_3#1.8" vType="DEFAULT_VEHTYPE" speedFactor="1.00" vaporized=""/>
    <tripinfo id="2#1.8" depart="392.00" departLane="5_0" departPos="5.10" departSpeed="0.00" departDelay="0.00" arrival="616.00" arrivalLane="7_0" arrivalPos="1136.40" arrivalSpeed="10.24" duration="224.00" routeLength="2294.90" waitingTime="2.00" waitingCount="1" stopTime="0.00" timeLoss="22.14" rerouteNo="0" devices="tripinfo_2#1.8 fcd_2#1.8" vType="DEFAULT_VEHTYPE" speedFactor="1.00" vaporized=""/>
    <tripinfo id="2#2.1" depart="418.00" departLane="5_0" departPos="5.10" departSpeed="0.00" departDelay="0.00" arrival="618.00" arrivalLane="3_0" arrivalPos="1136.40" arrivalSpeed="11.18" duration="200.00" routeLength="2276.73" waitingTime="0.00" waitingCount="0" stopTime="0.00" timeLoss="14.24" rerouteNo="0" devices="tripinfo_2#2.1 fcd_2#2.1" vType="DEFAULT_VEHTYPE" speedFactor="1.08" vaporized=""/>
    <tripinfo id="1#2.0" depart="400.00" departLane="4_0" departPos="5.10" departSpeed="0.00" departDelay="0.00" arrival="620.00" arrivalLane="2_0" arrivalPos="1136.40" arrivalSpeed="11.87" duration="220.00" routeLength="2294.90" waitingTime="26.00" waitingCount="1" stopTime="0.00" timeLoss="42.60" rerouteNo="0" devices="tripinfo_1#2.0 fcd_1#2.0" vType="DEFAULT_VEHTYPE" speedFactor="1.14" vaporized=""/>
    <tripinfo id="3#2.0" depart="400.00" departLane="8_0" departPos="5.10" departSpeed="0.00" departDelay="0.00" arrival="624.00" arrivalLane="6_0" arrivalPos="1136.40" arrivalSpeed="10.77" duration="224.00" routeLength="2294.90" waitingTime="0.00" waitingCount="0" stopTime="0.00" timeLoss="14.78" rerouteNo="0" devices="tripinfo_3#2.0 fcd_3#2.0" vType="DEFAULT_VEHTYPE" speedFactor="0.97" vaporized=""/>
    <tripinfo id="2#1.7" depart="368.00" departLane="5_0" departPos="5.10" departSpeed="0.00" departDelay="0.00" arrival="633.00" arrivalLane="7_0" arrivalPos="1136.40" arrivalSpeed="9.21" duration="265.00" routeLength="2294.90" waitingTime="7.00" waitingCount="1" stopTime="0.00" timeLoss="28.19" rerouteNo="0" devices="tripinfo_2#1.7 fcd_2#1.7" vType="DEFAULT_VEHTYPE" speedFactor="0.85" vaporized=""/>
    <tripinfo id="3#2.1" depart="418.00" departLane="8_0" departPos="5.10" departSpeed="0.00" departDelay="0.00" arrival="638.00" arrivalLane="6_0" arrivalPos="1136.40" arrivalSpeed="11.69" duration="220.00" routeLength="2294.90" waitingTime="21.00" waitingCount="1" stopTime="0.00" timeLoss="39.04" rerouteNo="0" devices="tripinfo_3#2.1 fcd_3#2.1" vType="DEFAULT_VEHTYPE" speedFactor="1.12" vaporized=""/>
    <tripinfo id="0#2.0" depart="400.00" departLane="1_0" departPos="5.10" departSpeed="0.00" departDelay="0.00" arrival="646.00" arrivalLane="3_0" arrivalPos="1136.40" arrivalSpeed="10.16" duration="246.00" routeLength="2294.90" waitingTime="0.00" waitingCount="0" stopTime="0.00" timeLoss="20.48" rerouteNo="0" devices="tripinfo_0#2.0 fcd_0#2.0" vType="DEFAULT_VEHTYPE" speedFactor="0.90" vaporized=""/>
    <tripinfo id="0#2.1" depart="424.00" departLane="1_0" departPos="5.10" departSpeed="0.00" departDelay="0.00" arrival="668.00" arrivalLane="3_1" arrivalPos="1136.40" arrivalSpeed="10.73" duration="244.00" routeLength="2294.90" waitingTime="25.00" waitingCount="1" stopTime="0.00" timeLoss="44.88" rerouteNo="0" devices="tripinfo_0#2.1 fcd_0#2.1" vType="DEFAULT_VEHTYPE" speedFactor="1.02" vaporized=""/>
    <tripinfo id="2#2.2" depart="436.00" departLane="5_0" departPos="5.10" departSpeed="0.00" departDelay="0.00" arrival="668.00" arrivalLane="3_0" arrivalPos="1136.40" arrivalSpeed="10.30" duration="232.00" routeLength="2276.73" waitingTime="0.00" waitingCount="0" stopTime="0.00" timeLoss="17.42" rerouteNo="0" devices="tripinfo_2#2.2 fcd_2#2.2" vType="DEFAULT_VEHTYPE" speedFactor="0.94" vaporized=""/>
    <tripinfo id="1#2.1" depart="424.00" departLane="4_0" departPos="5.10" departSpeed="0.00" departDelay="0.00" arrival="671.00" arrivalLane="2_0" arrivalPos="1136.40" arrivalSpeed="10.56" duration="247.00" routeLength="2294.90" waitingTime="23.00" waitingCount="1" stopTime="0.00" timeLoss="41.59" rerouteNo="0" devices="tripinfo_1#2.1 fcd_1#2.1" vType="DEFAULT_VEHTYPE" speedFactor="0.99" vaporized=""/>
    <tripinfo id="2#2.3" depart="454.00" departLane="5_0" departPos="5.10" departSpeed="0.00" departDelay="0.00" arrival="682.00" arrivalLane="3_0" arrivalPos="1136.40" arrivalSpeed="10.71" duration="228.00" routeLength="2276.73" waitingTime="14.00" waitingCount="1" stopTime="0.00" timeLoss="33.90" rerouteNo="0" devices="tripinfo_2#2.3 fcd_2#2.3" vType="DEFAULT_VEHTYPE" speedFactor="1.04" vaporized=""/>
    <tripinfo id="1#2.2" depart="448.00" departLane="4_0" departPos="5.10" departSpeed="0.00" departDelay="0.00" arrival="685.00" arrivalLane="2_0" arrivalPos="1136.40" arrivalSpeed="10.24" duration="237.00" routeLength="2294.90" waitingTime="0.00" waitingCount="0" stopTime="0.00" timeLoss="15.79" rerouteNo="0" devices="tripinfo_1#2.2 fcd_1#2.2" vType="DEFAULT_VEHTYPE" speedFactor="0.91" vaporized=""/>
    <tripinfo id="3#2.4" depart="472.00" departLane="8_0" departPos="5.10" departSpeed="0.00" departDelay="0.00" arrival="686.00" arrivalLane="6_0" arrivalPos="1136.40" arrivalSpeed="11.73" duration="214.00" routeLength="2294.90" waitingTime="2.00" waitingCount="1" stopTime="0.00" timeLoss="21.81" rerouteNo="0" devices="tripinfo_3#2.4 fcd_3#2.4" vType="DEFAULT_VEHTYPE" speedFactor="1.06" vaporized=""/>
    <tripinfo id="3#2.3" depart="454.00" departLane="8_0" departPos="5.10" departSpeed="0.00" departDelay="0.00" arrival="687.00" arrivalLane="6_0" arrivalPos="1136.40" arrivalSpeed="11.30" duration="233.00" routeLength="2294.90" waitingTime="13.00" waitingCount="1" stopTime="0.00" timeLoss="35.36" rerouteNo="0" devices="tripinfo_3#2.3 fcd_3#2.3" vType="DEFAULT_VEHTYPE" speedFactor="1.02" vaporized=""/>
    <tripinfo id="0#2.2" depart="448.00" departLane="1_0" departPos="5.10" departSpeed="0.00" departDelay="0.00" arrival="691.00" arrivalLane="7_0" arrivalPos="1136.40" arrivalSpeed="9.91" duration="243.00" routeLength="2292.21" waitingTime="1.00" waitingCount="1" stopTime="0.00" timeLoss="20.06" rerouteNo="0" devices="tripinfo_0#2.2 fcd_0#2.2" vType="DEFAULT_VEHTYPE" speedFactor="0.91" vaporized=""/>