<?xml version="1.0" encoding="UTF-8"?>

<!-- generated on 2023-05-09 12:37:51 by Eclipse SUMO sumo Version 1.16.0
<configuration xmlns:xsi="http://www.w3.org/2001/XMLSchema-instance" xsi:noNamespaceSchemaLocation="http://sumo.dlr.de/xsd/sumoConfiguration.xsd">

    <input>
        <net-file value="./SUMO_Input/./net/Test4.net.xml"/>
        <route-files value="./SUMO_Input/./route/Test4.rou.xml"/>
        <additional-files value="./SUMO_Input/dets.add.xml"/>
    </input>

    <output>
        <fcd-output value="./SUMO_Input/../SUMO_Output/fcd.xml"/>
        <tripinfo-output value="./SUMO_Input/../SUMO_Output/tripinfos.xml"/>
        <tripinfo-output.write-unfinished value="true"/>
        <statistic-output value="SUMO_Output/statistic.xml"/>
    </output>

    <time>
        <begin value="0"/>
        <end value="10000"/>
    </time>

    <report>
        <duration-log.statistics value="true"/>
    </report>

    <traci_server>
        <remote-port value="61267"/>
    </traci_server>

    <gui_only>
        <gui-settings-file value="./SUMO_Input/Test4.settings.xml"/>
    </gui_only>

</configuration>
-->

<tripinfos xmlns:xsi="http://www.w3.org/2001/XMLSchema-instance" xsi:noNamespaceSchemaLocation="http://sumo.dlr.de/xsd/tripinfo_file.xsd">
    <tripinfo id="0#1.0" depart="0.00" departLane="1_0" departPos="5.10" departSpeed="0.00" departDelay="0.00" arrival="204.00" arrivalLane="6_0" arrivalPos="1136.40" arrivalSpeed="11.54" duration="204.00" routeLength="2276.73" waitingTime="0.00" waitingCount="0" stopTime="0.00" timeLoss="14.01" rerouteNo="0" devices="tripinfo_0#1.0 fcd_0#1.0" vType="DEFAULT_VEHTYPE" speedFactor="1.06" vaporized=""/>
    <tripinfo id="3#1.0" depart="0.00" departLane="8_0" departPos="5.10" departSpeed="0.00" departDelay="0.00" arrival="226.00" arrivalLane="6_0" arrivalPos="1136.40" arrivalSpeed="11.78" duration="226.00" routeLength="2294.90" waitingTime="21.00" waitingCount="1" stopTime="0.00" timeLoss="39.17" rerouteNo="0" devices="tripinfo_3#1.0 fcd_3#1.0" vType="DEFAULT_VEHTYPE" speedFactor="1.08" vaporized=""/>
    <tripinfo id="1#1.0" depart="0.00" departLane="4_0" departPos="5.10" departSpeed="0.00" departDelay="0.00" arrival="232.00" arrivalLane="6_0" arrivalPos="1136.40" arrivalSpeed="9.62" duration="232.00" routeLength="2292.21" waitingTime="0.00" waitingCount="0" stopTime="0.00" timeLoss="16.77" rerouteNo="0" devices="tripinfo_1#1.0 fcd_1#1.0" vType="DEFAULT_VEHTYPE" speedFactor="0.94" vaporized=""/>
    <tripinfo id="2#1.0" depart="0.00" departLane="5_0" departPos="5.10" departSpeed="0.00" departDelay="0.00" arrival="246.00" arrivalLane="2_0" arrivalPos="1136.40" arrivalSpeed="10.76" duration="246.00" routeLength="2292.21" waitingTime="29.00" waitingCount="1" stopTime="0.00" timeLoss="46.04" rerouteNo="0" devices="tripinfo_2#1.0 fcd_2#1.0" vType="DEFAULT_VEHTYPE" speedFactor="1.01" vaporized=""/>
    <tripinfo id="0#1.3" depart="27.00" departLane="1_0" departPos="5.10" departSpeed="0.00" departDelay="0.00" arrival="249.00" arrivalLane="3_0" arrivalPos="1136.40" arrivalSpeed="11.60" duration="222.00" routeLength="2294.90" waitingTime="17.00" waitingCount="1" stopTime="0.00" timeLoss="36.71" rerouteNo="0" devices="tripinfo_0#1.3 fcd_0#1.3" vType="DEFAULT_VEHTYPE" speedFactor="1.09" vaporized=""/>
    <tripinfo id="0#1.2" depart="18.00" departLane="1_0" departPos="5.10" departSpeed="0.00" departDelay="0.00" arrival="250.00" arrivalLane="6_0" arrivalPos="1136.40" arrivalSpeed="11.48" duration="232.00" routeLength="2276.73" waitingTime="22.00" waitingCount="1" stopTime="0.00" timeLoss="39.59" rerouteNo="0" devices="tripinfo_0#1.2 fcd_0#1.2" vType="DEFAULT_VEHTYPE" speedFactor="1.05" vaporized=""/>
    <tripinfo id="2#1.1" depart="18.00" departLane="5_0" departPos="5.10" departSpeed="0.00" departDelay="0.00" arrival="250.00" arrivalLane="7_0" arrivalPos="1136.40" arrivalSpeed="9.38" duration="232.00" routeLength="2294.90" waitingTime="0.00" waitingCount="0" stopTime="0.00" timeLoss="15.90" rerouteNo="0" devices="tripinfo_2#1.1 fcd_2#1.1" vType="DEFAULT_VEHTYPE" speedFactor="0.94" vaporized=""/>
    <tripinfo id="1#1.4" depart="36.00" departLane="4_0" departPos="5.10" departSpeed="0.00" departDelay="0.00" arrival="250.00" arrivalLane="2_0" arrivalPos="1136.40" arrivalSpeed="11.60" duration="214.00" routeLength="2294.90" waitingTime="4.00" waitingCount="1" stopTime="0.00" timeLoss="33.66" rerouteNo="0" devices="tripinfo_1#1.4 fcd_1#1.4" vType="DEFAULT_VEHTYPE" speedFactor="1.12" vaporized=""/>
    <tripinfo id="1#1.6" depart="54.00" departLane="4_0" departPos="5.10" departSpeed="0.00" departDelay="0.00" arrival="252.00" arrivalLane="2_1" arrivalPos="1136.40" arrivalSpeed="12.81" duration="198.00" routeLength="2294.90" waitingTime="2.00" waitingCount="1" stopTime="0.00" timeLoss="23.30" rerouteNo="0" devices="tripinfo_1#1.6 fcd_1#1.6" vType="DEFAULT_VEHTYPE" speedFactor="1.16" vaporized=""/>
    <tripinfo id="0#1.1" depart="9.00" departLane="1_0" departPos="5.10" departSpeed="0.00" departDelay="0.00" arrival="253.00" arrivalLane="3_0" arrivalPos="1136.40" arrivalSpeed="10.67" duration="244.00" routeLength="2294.90" waitingTime="29.00" waitingCount="1" stopTime="0.00" timeLoss="47.04" rerouteNo="0" devices="tripinfo_0#1.1 fcd_0#1.1" vType="DEFAULT_VEHTYPE" speedFactor="1.03" vaporized=""/>
    <tripinfo id="1#1.3" depart="27.00" departLane="4_0" departPos="5.10" departSpeed="0.00" departDelay="0.00" arrival="253.00" arrivalLane="2_0" arrivalPos="1136.40" arrivalSpeed="10.85" duration="226.00" routeLength="2294.90" waitingTime="10.00" waitingCount="1" stopTime="0.00" timeLoss="28.96" rerouteNo="0" devices="tripinfo_1#1.3 fcd_1#1.3" vType="DEFAULT_VEHTYPE" speedFactor="1.03" vaporized=""/>
    <tripinfo id="0#1.4" depart="36.00" departLane="1_0" departPos="5.10" departSpeed="0.00" departDelay="0.00" arrival="255.00" arrivalLane="3_0" arrivalPos="1136.40" arrivalSpeed="10.95" duration="219.00" routeLength="2294.90" waitingTime="6.00" waitingCount="1" stopTime="0.00" timeLoss="25.69" rerouteNo="0" devices="tripinfo_0#1.4 fcd_0#1.4" vType="DEFAULT_VEHTYPE" speedFactor="1.05" vaporized=""/>
    <tripinfo id="1#1.5" depart="45.00" departLane="4_0" departPos="5.10" departSpeed="0.00" departDelay="0.00" arrival="276.00" arrivalLane="7_0" arrivalPos="1136.40" arrivalSpeed="9.43" duration="231.00" routeLength="2276.73" waitingTime="0.00" waitingCount="0" stopTime="0.00" timeLoss="16.85" rerouteNo="0" devices="tripinfo_1#1.5 fcd_1#1.5" vType="DEFAULT_VEHTYPE" speedFactor="0.94" vaporized=""/>
    <tripinfo id="3#1.5" depart="90.00" departLane="8_0" departPos="5.10" departSpeed="0.00" departDelay="0.00" arrival="276.00" arrivalLane="2_0" arrivalPos="1136.40" arrivalSpeed="12.40" duration="186.00" routeLength="2276.73" waitingTime="0.00" waitingCount="0" stopTime="0.00" timeLoss="13.98" rerouteNo="0" devices="tripinfo_3#1.5 fcd_3#1.5" vType="DEFAULT_VEHTYPE" speedFactor="1.17" vaporized=""/>
    <tripinfo id="1#1.2" depart="18.00" departLane="4_0" departPos="5.10" departSpeed="0.00" departDelay="0.00" arrival="279.00" arrivalLane="2_0" arrivalPos="1136.40" arrivalSpeed="9.56" duration="261.00" routeLength="2294.90" waitingTime="4.00" waitingCount="1" stopTime="0.00" timeLoss="32.21" rerouteNo="0" devices="tripinfo_1#1.2 fcd_1#1.2" vType="DEFAULT_VEHTYPE" speedFactor="0.89" vaporized=""/>
    <tripinfo id="1#1.1" depart="9.00" departLane="4_0" departPos="5.10" departSpeed="0.00" departDelay="0.00" arrival="282.00" arrivalLane="2_0" arrivalPos="1136.40" arrivalSpeed="8.53" duration="273.00" routeLength="2294.90" waitingTime="5.00" waitingCount="1" stopTime="0.00" timeLoss="29.45" rerouteNo="0" devices="tripinfo_1#1.1 fcd_1#1.1" vType="DEFAULT_VEHTYPE" speedFactor="0.83" vaporized=""/>
    <tripinfo id="2#1.2" depart="36.00" departLane="5_0" departPos="5.10" departSpeed="0.00" departDelay="0.00" arrival="291.00" arrivalLane="7_0" arrivalPos="1136.40" arrivalSpeed="11.25" duration="255.00" routeLength="2294.90" waitingTime="31.00" waitingCount="1" stopTime="0.00" timeLoss="50.65" rerouteNo="0" devices="tripinfo_2#1.2 fcd_2#1.2" vType="DEFAULT_VEHTYPE" speedFactor="0.99" vaporized=""/>
    <tripinfo id="3#1.3" depart="54.00" departLane="8_0" departPos="5.10" departSpeed="0.00" departDelay="0.00" arrival="291.00" arrivalLane="6_0" arrivalPos="1136.40" arrivalSpeed="11.04" duration="237.00" routeLength="2294.90" waitingTime="16.00" waitingCount="1" stopTime="0.00" timeLoss="36.62" rerouteNo="0" devices="tripinfo_3#1.3 fcd_3#1.3" vType="DEFAULT_VEHTYPE" speedFactor="1.01" vaporized=""/>
    <tripinfo id="1#1.10" depart="90.00" departLane="4_0" departPos="5.10" departSpeed="0.00" departDelay="0.00" arrival="299.00" arrivalLane="2_0" arrivalPos="1136.40" arrivalSpeed="12.71" duration="209.00" routeLength="2294.90" waitingTime="13.00" waitingCount="1" stopTime="0.00" timeLoss="33.68" rerouteNo="0" devices="tripinfo_1#1.10 fcd_1#1.10" vType="DEFAULT_VEHTYPE" speedFactor="1.15" vaporized=""/>
    <tripinfo id="3#1.4" depart="72.00" departLane="8_0" departPos="5.10" departSpeed="0.00" departDelay="0.00" arrival="301.00" arrivalLane="6_0" arrivalPos="1136.40" arrivalSpeed="9.69" duration="229.00" routeLength="2294.90" waitingTime="0.00" waitingCount="0" stopTime="0.00" timeLoss="15.72" rerouteNo="0" devices="tripinfo_3#1.4 fcd_3#1.4" vType="DEFAULT_VEHTYPE" speedFactor="0.95" vaporized=""/>
    <tripinfo id="2#1.3" depart="54.00" departLane="5_0" departPos="5.10" departSpeed="0.00" departDelay="0.00" arrival="302.00" arrivalLane="2_0" arrivalPos="1136.40" arrivalSpeed="11.53" duration="248.00" routeLength="2292.21" waitingTime="31.00" waitingCount="1" stopTime="0.00" timeLoss="49.01" rerouteNo="0" devices="tripinfo_2#1.3 fcd_2#1.3" vType="DEFAULT_VEHTYPE" speedFactor="1.02" vaporized=""/>
    <tripinfo id="1#1.12" depart="108.00" departLane="4_0" departPos="5.10" departSpeed="0.00" departDelay="0.00" arrival="304.00" arrivalLane="2_0" arrivalPos="1136.40" arrivalSpeed="12.17" duration="196.00" routeLength="2294.90" waitingTime="2.00" waitingCount="1" stopTime="0.00" timeLoss="24.29" rerouteNo="0" devices="tripinfo_1#1.12 fcd_1#1.12" vType="DEFAULT_VEHTYPE" speedFactor="1.18" vaporized=""/>
    <tripinfo id="0#1.10" depart="90.00" departLane="1_0" departPos="5.10" departSpeed="0.00" departDelay="0.00" arrival="306.00" arrivalLane="3_0" arrivalPos="1136.40" arrivalSpeed="12.92" duration="216.00" routeLength="2294.90" waitingTime="22.00" waitingCount="1" stopTime="0.00" timeLoss="44.55" rerouteNo="0" devices="tripinfo_0#1.10 fcd_0#1.10" vType="DEFAULT_VEHTYPE" speedFactor="1.18" vaporized=""/>
    <tripinfo id="3#1.1" depart="18.00" departLane="8_0" departPos="5.10" departSpeed="0.00" departDelay="0.00" arrival="309.00" arrivalLane="6_0" arrivalPos="1136.40" arrivalSpeed="8.44" duration="291.00" routeLength="2294.90" waitingTime="32.00" waitingCount="1" stopTime="0.00" timeLoss="55.19" rerouteNo="0" devices="tripinfo_3#1.1 fcd_3#1.1" vType="DEFAULT_VEHTYPE" speedFactor="0.86" vaporized=""/>
    <tripinfo id="3#1.2" depart="36.00" departLane="8_0" departPos="5.10" departSpeed="0.00" departDelay="0.00" arrival="312.00" arrivalLane="3_0" arrivalPos="1136.40" arrivalSpeed="9.76" duration="276.00" routeLength="2292.21" waitingTime="39.00" waitingCount="1" stopTime="0.00" timeLoss="57.80" rerouteNo="0" devices="tripinfo_3#1.2 fcd_3#1.2" vType="DEFAULT_VEHTYPE" speedFactor="0.93" vaporized=""/>
    <tripinfo id="0#1.9" depart="81.00" departLane="1_0" departPos="5.10" departSpeed="0.00" departDelay="0.00" arrival="312.00" arrivalLane="3_1" arrivalPos="1136.40" arrivalSpeed="12.58" duration="231.00" routeLength="2294.90" waitingTime="25.00" waitingCount="1" stopTime="0.00" timeLoss="51.83" rerouteNo="0" devices="tripinfo_0#1.9 fcd_0#1.9" vType="DEFAULT_VEHTYPE" speedFactor="1.13" vaporized=""/>
    <tripinfo id="1#1.11" depart="99.00" departLane="4_0" departPos="5.10" departSpeed="0.00" departDelay="0.00" arrival="319.00" arrivalLane="2_0" arrivalPos="1136.40" arrivalSpeed="10.67" duration="220.00" routeLength="2294.90" waitingTime="0.00" waitingCount="0" stopTime="0.00" timeLoss="21.11" rerouteNo="0" devices="tripinfo_1#1.11 fcd_1#1.11" vType="DEFAULT_VEHTYPE" speedFactor="1.02" vaporized=""/>
    <tripinfo id="0#1.7" depart="63.00" departLane="1_0" departPos="5.10" departSpeed="0.00" departDelay="0.00" arrival="320.00" arrivalLane="3_1" arrivalPos="1136.40" arrivalSpeed="10.49" duration="257.00" routeLength="2294.90" waitingTime="28.00" waitingCount="1" stopTime="0.00" timeLoss="49.00" rerouteNo="0" devices="tripinfo_0#1.7 fcd_0#1.7" vType="DEFAULT_VEHTYPE" speedFactor="0.97" vaporized=""/>
    <tripinfo id="0#1.6" depart="54.00" departLane="1_0" departPos="5.10" departSpeed="0.00" departDelay="0.00" arrival="321.00" arrivalLane="3_0" arrivalPos="1136.40" arrivalSpeed="10.54" duration="267.00" routeLength="2294.90" waitingTime="30.00" waitingCount="1" stopTime="0.00" timeLoss="50.37" rerouteNo="0" devices="tripinfo_0#1.6 fcd_0#1.6" vType="DEFAULT_VEHTYPE" speedFactor="0.94" vaporized=""/>
    <tripinfo id="1#1.7" depart="63.00" departLane="4_0" departPos="5.10" departSpeed="0.00" departDelay="0.00" arrival="325.00" arrivalLane="2_0" arrivalPos="1136.40" arrivalSpeed="9.12" duration="262.00" routeLength="2294.90" waitingTime="13.00" waitingCount="1" stopTime="0.00" timeLoss="34.90" rerouteNo="0" devices="tripinfo_1#1.7 fcd_1#1.7" vType="DEFAULT_VEHTYPE" speedFactor="0.89" vaporized=""/>
    <tripinfo id="1#1.9" depart="81.00" departLane="4_0" departPos="5.10" departSpeed="0.00" departDelay="0.00" arrival="325.00" arrivalLane="2_1" arrivalPos="1136.40" arrivalSpeed="10.32" duration="244.00" routeLength="2294.90" waitingTime="4.00" waitingCount="1" stopTime="0.00" timeLoss="26.64" rerouteNo="0" devices="tripinfo_1#1.9 fcd_1#1.9" vType="DEFAULT_VEHTYPE" speedFactor="0.93" vaporized=""/>
    <tripinfo id="1#1.8" depart="72.00" departLane="4_0" departPos="5.10" departSpeed="0.00" departDelay="0.00" arrival="326.00" arrivalLane="7_0" arrivalPos="1136.40" arrivalSpeed="8.74" duration="254.00" routeLength="2276.73" waitingTime="1.00" waitingCount="1" stopTime="0.00" timeLoss="23.62" rerouteNo="0" devices="tripinfo_1#1.8 fcd_1#1.8" vType="DEFAULT_VEHTYPE" speedFactor="0.87" vaporized=""/>
    <tripinfo id="0#1.5" depart="45.00" departLane="1_0" departPos="5.10" departSpeed="0.00" departDelay="0.00" arrival="327.00" arrivalLane="3_0" arrivalPos="1136.40" arrivalSpeed="9.68" duration="282.00" routeLength="2294.90" waitingTime="31.00" waitingCount="1" stopTime="0.00" timeLoss="51.89" rerouteNo="0" devices="tripinfo_0#1.5 fcd_0#1.5" vType="DEFAULT_VEHTYPE" speedFactor="0.88" vaporized=""/>
    <tripinfo id="3#1.8" depart="144.00" departLane="8_0" departPos="5.10" departSpeed="0.00" departDelay="0.00" arrival="330.00" arrivalLane="6_0" arrivalPos="1136.40" arrivalSpeed="12.80" duration="186.00" routeLength="2294.90" waitingTime="0.00" waitingCount="0" stopTime="0.00" timeLoss="13.08" rerouteNo="0" devices="tripinfo_3#1.8 fcd_3#1.8" vType="DEFAULT_VEHTYPE" speedFactor="1.17" vaporized=""/>
    <tripinfo id="0#1.12" depart="108.00" departLane="1_0" departPos="5.10" departSpeed="0.00" departDelay="0.00" arrival="332.00" arrivalLane="3_0" arrivalPos="1136.40" arrivalSpeed="10.37" duration="224.00" routeLength="2294.90" waitingTime="0.00" waitingCount="0" stopTime="0.00" timeLoss="15.77" rerouteNo="0" devices="tripinfo_0#1.12 fcd_0#1.12" vType="DEFAULT_VEHTYPE" speedFactor="0.97" vaporized=""/>
    <tripinfo id="2#1.6" depart="108.00" departLane="5_0" departPos="5.10" departSpeed="0.00" departDelay="0.00" arrival="332.00" arrivalLane="3_1" arrivalPos="1136.40" arrivalSpeed="12.26" duration="224.00" routeLength="2276.73" waitingTime="24.00" waitingCount="1" stopTime="0.00" timeLoss="41.59" rerouteNo="0" devices="tripinfo_2#1.6 fcd_2#1.6" vType="DEFAULT_VEHTYPE" speedFactor="1.10" vaporized=""/>
    <tripinfo id="3#1.7" depart="126.00" departLane="8_0" departPos="5.10" departSpeed="0.00" departDelay="0.00" arrival="335.00" arrivalLane="6_0" arrivalPos="1136.40" arrivalSpeed="12.01" duration="209.00" routeLength="2294.90" waitingTime="5.00" waitingCount="1" stopTime="0.00" timeLoss="23.28" rerouteNo="0" devices="tripinfo_3#1.7 fcd_3#1.7" vType="DEFAULT_VEHTYPE" speedFactor="1.09" vaporized=""/>
    <tripinfo id="0#1.11" depart="99.00" departLane="1_0" departPos="5.10" departSpeed="0.00" departDelay="0.00" arrival="338.00" arrivalLane="7_0" arrivalPos="1136.40" arrivalSpeed="11.01" duration="239.00" routeLength="2292.21" waitingTime="16.00" waitingCount="1" stopTime="0.00" timeLoss="35.08" rerouteNo="0" devices="tripinfo_0#1.11 fcd_0#1.11" vType="DEFAULT_VEHTYPE" speedFactor="0.99" vaporized=""/>
    <tripinfo id="2#1.7" depart="126.00" departLane="5_0" departPos="5.10" departSpeed="0.00" departDelay="0.00" arrival="341.00" arrivalLane="3_0" arrivalPos="1136.40" arrivalSpeed="10.93" duration="215.00" routeLength="2276.73" waitingTime="4.00" waitingCount="1" stopTime="0.00" timeLoss="21.63" rerouteNo="0" devices="tripinfo_2#1.7 fcd_2#1.7" vType="DEFAULT_VEHTYPE" speedFactor="1.04" vaporized=""/>
    <tripinfo id="2#1.5" depart="90.00" departLane="5_0" departPos="5.10" departSpeed="0.00" departDelay="0.00" arrival="347.00" arrivalLane="7_0" arrivalPos="1136.40" arrivalSpeed="10.84" duration="257.00" routeLength="2294.90" waitingTime="35.00" waitingCount="1" stopTime="0.00" timeLoss="55.42" rerouteNo="0" devices="tripinfo_2#1.5 fcd_2#1.5" vType="DEFAULT_VEHTYPE" speedFactor="1.01" vaporized=""/>
    <tripinfo id="2#1.4" depart="72.00" departLane="5_0" departPos="5.10" departSpeed="0.00" departDelay="0.00" arrival="355.00" arrivalLane="7_0" arrivalPos="1136.40" arrivalSpeed="10.10" duration="283.00" routeLength="2294.90" waitingTime="41.00" waitingCount="1" stopTime="0.00" timeLoss="62.32" rerouteNo="0" devices="tripinfo_2#1.4 fcd_2#1.4" vType="DEFAULT_VEHTYPE" speedFactor="0.92" vaporized=""/>
    <tripinfo id="3#1.6" depart="108.00" departLane="8_0" departPos="5.10" departSpeed="0.00" departDelay="0.00" arrival="355.00" arrivalLane="2_0" arrivalPos="1136.40" arrivalSpeed="10.13" duration="247.00" routeLength="2276.73" waitingTime="3.00" waitingCount="1" stopTime="0.00" timeLoss="23.56" rerouteNo="0" devices="tripinfo_3#1.6 fcd_3#1.6" vType="DEFAULT_VEHTYPE" speedFactor="0.90" vaporized=""/>
    <tripinfo id="0#1.8" depart="72.00" departLane="1_0" departPos="5.10" departSpeed="0.00" departDelay="0.00" arrival="359.00" arrivalLane="7_0" arrivalPos="1136.40" arrivalSpeed="9.16" duration="287.00" routeLength="2292.21" waitingTime="17.00" waitingCount="1" stopTime="0.00" timeLoss="41.75" rerouteNo="0" devices="tripinfo_0#1.8 fcd_0#1.8" vType="DEFAULT_VEHTYPE" speedFactor="0.83" vaporized=""/>
    <tripinfo id="0#1.14" depart="126.00" departLane="1_0" departPos="5.10" departSpeed="0.00" departDelay="0.00" arrival="359.00" arrivalLane="3_0" arrivalPos="1136.40" arrivalSpeed="11.93" duration="233.00" routeLength="2294.90" waitingTime="29.00" waitingCount="1" stopTime="0.00" timeLoss="47.73" rerouteNo="0" devices="tripinfo_0#1.14 fcd_0#1.14" vType="DEFAULT_VEHTYPE" speedFactor="1.09" vaporized=""/>
    <tripinfo id="1#1.17" depart="153.00" departLane="4_0" departPos="5.10" departSpeed="0.00" departDelay="0.00" arrival="360.00" arrivalLane="7_1" arrivalPos="1136.40" arrivalSpeed="11.45" duration="207.00" routeLength="2276.73" waitingTime="0.00" waitingCount="0" stopTime="0.00" timeLoss="23.28" rerouteNo="0" devices="tripinfo_1#1.17 fcd_1#1.17" vType="DEFAULT_VEHTYPE" speedFactor="1.10" vaporized=""/>
    <tripinfo id="0#1.13" depart="117.00" departLane="1_0" departPos="5.10" departSpeed="0.00" departDelay="0.00" arrival="362.00" arrivalLane="3_0" arrivalPos="1136.40" arrivalSpeed="11.69" duration="245.00" routeLength="2294.90" waitingTime="32.00" waitingCount="1" stopTime="0.00" timeLoss="48.76" rerouteNo="0" devices="tripinfo_0#1.13 fcd_0#1.13" vType="DEFAULT_VEHTYPE" speedFactor="1.03" vaporized=""/>
    <tripinfo id="1#1.14" depart="126.00" departLane="4_0" departPos="5.10" departSpeed="0.00" departDelay="0.00" arrival="363.00" arrivalLane="2_0" arrivalPos="1136.40" arrivalSpeed="11.74" duration="237.00" routeLength="2294.90" waitingTime="24.00" waitingCount="1" stopTime="0.00" timeLoss="41.90" rerouteNo="0" devices="tripinfo_1#1.14 fcd_1#1.14" vType="DEFAULT_VEHTYPE" speedFactor="1.04" vaporized=""/>
    <tripinfo id="1#1.13" depart="117.00" departLane="4_0" departPos="5.10" departSpeed="0.00" departDelay="0.00" arrival="369.00" arrivalLane="7_0" arrivalPos="1136.40" arrivalSpeed="10.25" duration="252.00" routeLength="2276.73" waitingTime="23.00" waitingCount="1" stopTime="0.00" timeLoss="41.70" rerouteNo="0" devices="tripinfo_1#1.13 fcd_1#1.13" vType="DEFAULT_VEHTYPE" speedFactor="0.96" vaporized=""/>
    <tripinfo id="0#1.15" depart="135.00" departLane="1_0" departPos="5.10" departSpeed="0.00" departDelay="0.00" arrival="371.00" arrivalLane="3_0" arrivalPos="1136.40" arrivalSpeed="11.17" duration="236.00" routeLength="2294.90" waitingTime="11.00" waitingCount="1" stopTime="0.00" timeLoss="33.00" rerouteNo="0" devices="tripinfo_0#1.15 fcd_0#1.15" vType="DEFAULT_VEHTYPE" speedFactor="1.00" vaporized=""/>
    <tripinfo id="0#1.17" depart="153.00" departLane="1_0" departPos="5.10" departSpeed="0.00" departDelay="0.00" arrival="371.00" arrivalLane="3_1" arrivalPos="1136.40" arrivalSpeed="10.81" duration="218.00" routeLength="2294.90" waitingTime="0.00" waitingCount="0" stopTime="0.00" timeLoss="18.50" rerouteNo="0" devices="tripinfo_0#1.17 fcd_0#1.17" vType="DEFAULT_VEHTYPE" speedFactor="1.02" vaporized=""/>
    <tripinfo id="1#1.15" depart="135.00" departLane="4_0" departPos="5.10" departSpeed="0.00" departDelay="0.00" arrival="380.00" arrivalLane="7_0" arrivalPos="1136.40" arrivalSpeed="9.60" duration="245.00" routeLength="2276.73" waitingTime="1.00" waitingCount="1" stopTime="0.00" timeLoss="21.09" rerouteNo="0" devices="tripinfo_1#1.15 fcd_1#1.15" vType="DEFAULT_VEHTYPE" speedFactor="0.90" vaporized=""/>
    <tripinfo id="1#1.18" depart="162.00" departLane="4_0" departPos="5.10" departSpeed="0.00" departDelay="0.00" arrival="385.00" arrivalLane="2_0" arrivalPos="1136.40" arrivalSpeed="10.08" duration="223.00" routeLength="2294.90" waitingTime="0.00" waitingCount="0" stopTime="0.00" timeLoss="19.40" rerouteNo="0" devices="tripinfo_1#1.18 fcd_1#1.18" vType="DEFAULT_VEHTYPE" speedFactor="1.00" vaporized=""/>
    <tripinfo id="3#1.9" depart="162.00" departLane="8_0" departPos="5.10" departSpeed="0.00" departDelay="0.00" arrival="385.00" arrivalLane="6_0" arrivalPos="1136.40" arrivalSpeed="12.48" duration="223.00" routeLength="2294.90" waitingTime="28.00" waitingCount="1" stopTime="0.00" timeLoss="45.45" rerouteNo="0" devices="tripinfo_3#1.9 fcd_3#1.9" vType="DEFAULT_VEHTYPE" speedFactor="1.14" vaporized=""/>
    <tripinfo id="0#1.18" depart="162.00" departLane="1_0" departPos="5.10" departSpeed="0.00" departDelay="0.00" arrival="389.00" arrivalLane="7_0" arrivalPos="1136.40" arrivalSpeed="10.35" duration="227.00" routeLength="2292.21" waitingTime="5.00" waitingCount="1" stopTime="0.00" timeLoss="25.16" rerouteNo="0" devices="tripinfo_0#1.18 fcd_0#1.18" vType="DEFAULT_VEHTYPE" speedFactor="1.00" vaporized=""/>
    <tripinfo id="0#1.16" depart="144.00" departLane="1_0" departPos="5.10" departSpeed="0.00" departDelay="0.00" arrival="393.00" arrivalLane="3_0" arrivalPos="1136.40" arrivalSpeed="8.68" duration="249.00" routeLength="2294.90" waitingTime="0.00" waitingCount="0" stopTime="0.00" timeLoss="18.62" rerouteNo="0" devices="tripinfo_0#1.16 fcd_0#1.16" vType="DEFAULT_VEHTYPE" speedFactor="0.88" vaporized=""/>
    <tripinfo id="1#1.19" depart="171.00" departLane="4_0" departPos="5.10" departSpeed="0.00" departDelay="0.00" arrival="396.00" arrivalLane="7_0" arrivalPos="1136.40" arrivalSpeed="10.30" duration="225.00" routeLength="2276.73" waitingTime="0.00" waitingCount="0" stopTime="0.00" timeLoss="17.23" rerouteNo="0" devices="tripinfo_1#1.19 fcd_1#1.19" vType="DEFAULT_VEHTYPE" speedFactor="0.97" vaporized=""/>
    <tripinfo id="2#1.10" depart="180.00" departLane="5_0" departPos="5.10" departSpeed="0.00" departDelay="0.00" arrival="396.00" arrivalLane="3_0" arrivalPos="1136.40" arrivalSpeed="11.25" duration="216.00" routeLength="2276.73" waitingTime="0.00" waitingCount="0" stopTime="0.00" timeLoss="17.28" rerouteNo="0" devices="tripinfo_2#1.10 fcd_2#1.10" vType="DEFAULT_VEHTYPE" speedFactor="1.02" vaporized=""/>
    <tripinfo id="1#1.16" depart="144.00" departLane="4_0" departPos="5.10" departSpeed="0.00" departDelay="0.00" arrival="401.00" arrivalLane="2_0" arrivalPos="1136.40" arrivalSpeed="9.62" duration="257.00" routeLength="2294.90" waitingTime="0.00" waitingCount="0" stopTime="0.00" timeLoss="19.12" rerouteNo="0" devices="tripinfo_1#1.16 fcd_1#1.16" vType="DEFAULT_VEHTYPE" speedFactor="0.85" vaporized=""/>
    <tripinfo id="3#1.10" depart="180.00" departLane="8_0" departPos="5.10" departSpeed="0.00" departDelay="0.00" arrival="401.00" arrivalLane="2_1" arrivalPos="1136.40" arrivalSpeed="11.01" duration="221.00" routeLength="2276.73" waitingTime="0.00" waitingCount="0" stopTime="0.00" timeLoss="16.36" rerouteNo="0" devices="tripinfo_3#1.10 fcd_3#1.10" vType="DEFAULT_VEHTYPE" speedFactor="0.99" vaporized=""/>
    <tripinfo id="2#1.11" depart="198.00" departLane="5_0" departPos="5.10" departSpeed="0.00" departDelay="0.00" arrival="407.00" arrivalLane="3_0" arrivalPos="1136.40" arrivalSpeed="11.70" duration="209.00" routeLength="2276.73" waitingTime="0.00" waitingCount="0" stopTime="0.00" timeLoss="14.95" rerouteNo="0" devices="tripinfo_2#1.11 fcd_2#1.11" vType="DEFAULT_VEHTYPE" speedFactor="1.04" vaporized=""/>
    <tripinfo id="1#1.20" depart="180.00" departLane="4_0" departPos="5.10" departSpeed="0.00" departDelay="0.00" arrival="409.00" arrivalLane="2_0" arrivalPos="1136.40" arrivalSpeed="11.97" duration="229.00" routeLength="2294.90" waitingTime="31.00" waitingCount="1" stopTime="0.00" timeLoss="48.49" rerouteNo="0" devices="tripinfo_1#1.20 fcd_1#1.20" vType="DEFAULT_VEHTYPE" speedFactor="1.12" vaporized=""/>
    <tripinfo id="2#1.9" depart="162.00" departLane="5_0" departPos="5.10" departSpeed="0.00" departDelay="0.00" arrival="415.00" arrivalLane="7_0" arrivalPos="1136.40" arrivalSpeed="8.97" duration="253.00" routeLength="2294.90" waitingTime="5.00" waitingCount="1" stopTime="0.00" timeLoss="27.74" rerouteNo="0" devices="tripinfo_2#1.9 fcd_2#1.9" vType="DEFAULT_VEHTYPE" speedFactor="0.90" vaporized=""/>
    <tripinfo id="0#1.20" depart="180.00" departLane="1_0" departPos="5.10" departSpeed="0.00" departDelay="0.00" arrival="416.00" arrivalLane="3_0" arrivalPos="1136.40" arrivalSpeed="11.12" duration="236.00" routeLength="2294.90" waitingTime="29.00" waitingCount="1" stopTime="0.00" timeLoss="48.57" rerouteNo="0" devices="tripinfo_0#1.20 fcd_0#1.20" vType="DEFAULT_VEHTYPE" speedFactor="1.08" vaporized=""/>
    <tripinfo id="2#1.8" depart="144.00" departLane="5_0" departPos="5.10" departSpeed="0.00" departDelay="0.00" arrival="419.00" arrivalLane="7_0" arrivalPos="1136.40" arrivalSpeed="9.06" duration="275.00" routeLength="2294.90" waitingTime="16.00" waitingCount="1" stopTime="0.00" timeLoss="38.26" rerouteNo="0" devices="tripinfo_2#1.8 fcd_2#1.8" vType="DEFAULT_VEHTYPE" speedFactor="0.85" vaporized=""/>
    <tripinfo id="0#1.19" depart="171.00" departLane="1_0" departPos="5.10" departSpeed="0.00" departDelay="0.00" arrival="420.00" arrivalLane="3_0" arrivalPos="1136.40" arrivalSpeed="10.60" duration="249.00" routeLength="2294.90" waitingTime="31.00" waitingCount="1" stopTime="0.00" timeLoss="50.95" rerouteNo="0" devices="tripinfo_0#1.19 fcd_0#1.19" vType="DEFAULT_VEHTYPE" speedFactor="1.02" vaporized=""/>
    <tripinfo id="0#1.23" depart="207.00" departLane="1_0" departPos="5.10" departSpeed="0.00" departDelay="0.00" arrival="426.00" arrivalLane="3_0" arrivalPos="1136.40" arrivalSpeed="11.04" duration="219.00" routeLength="2294.90" waitingTime="0.00" waitingCount="0" stopTime="0.00" timeLoss="20.98" rerouteNo="0" devices="tripinfo_0#1.23 fcd_0#1.23" vType="DEFAULT_VEHTYPE" speedFactor="1.02" vaporized=""/>
    <tripinfo id="0#1.21" depart="189.00" departLane="1_0" departPos="5.10" departSpeed="0.00" departDelay="0.00" arrival="433.00" arrivalLane="3_0" arrivalPos="1136.40" arrivalSpeed="9.48" duration="244.00" routeLength="2294.90" waitingTime="8.00" waitingCount="1" stopTime="0.00" timeLoss="28.32" rerouteNo="0" devices="tripinfo_0#1.21 fcd_0#1.21" vType="DEFAULT_VEHTYPE" speedFactor="0.94" vaporized=""/>
    <tripinfo id="1#1.23" depart="207.00" departLane="4_0" departPos="5.10" departSpeed="0.00" departDelay="0.00" arrival="434.00" arrivalLane="2_0" arrivalPos="1136.40" arrivalSpeed="10.19" duration="227.00" routeLength="2294.90" waitingTime="0.00" waitingCount="0" stopTime="0.00" timeLoss="18.77" rerouteNo="0" devices="tripinfo_1#1.23 fcd_1#1.23" vType="DEFAULT_VEHTYPE" speedFactor="0.97" vaporized=""/>
    <tripinfo id="1#1.24" depart="216.00" departLane="4_0" departPos="5.10" departSpeed="0.00" departDelay="0.00" arrival="434.00" arrivalLane="2_1" arrivalPos="1136.40" arrivalSpeed="11.37" duration="218.00" routeLength="2294.90" waitingTime="0.00" waitingCount="0" stopTime="0.00" timeLoss="26.38" rerouteNo="0" devices="tripinfo_1#1.24 fcd_1#1.24" vType="DEFAULT_VEHTYPE" speedFactor="1.06" vaporized=""/>
    <tripinfo id="1#1.22" depart="198.00" departLane="4_0" departPos="5.10" departSpeed="0.00" departDelay="0.00" arrival="437.00" arrivalLane="2_0" arrivalPos="1136.40" arrivalSpeed="9.63" duration="239.00" routeLength="2294.90" waitingTime="0.00" waitingCount="0" stopTime="0.00" timeLoss="17.71" rerouteNo="0" devices="tripinfo_1#1.22 fcd_1#1.22" vType="DEFAULT_VEHTYPE" speedFactor="0.91" vaporized=""/>