<?xml version="1.0" encoding="UTF-8"?>

<!-- generated on 2023-05-16 00:50:52 by Eclipse SUMO sumo Version 1.16.0
<configuration xmlns:xsi="http://www.w3.org/2001/XMLSchema-instance" xsi:noNamespaceSchemaLocation="http://sumo.dlr.de/xsd/sumoConfiguration.xsd">

    <input>
        <net-file value="./SUMO_Input/./net/Test4.net.xml"/>
        <route-files value="./SUMO_Input/./route/Test4.rou.xml"/>
        <additional-files value="./SUMO_Input/dets.add.xml"/>
    </input>

    <output>
        <fcd-output value="./SUMO_Input/../SUMO_Output/fcd.xml"/>
        <tripinfo-output value="./SUMO_Input/../SUMO_Output/tripinfos.xml"/>
        <tripinfo-output.write-unfinished value="true"/>
        <statistic-output value="SUMO_Output/statistic.xml"/>
    </output>

    <time>
        <begin value="0"/>
        <end value="10000"/>
    </time>

    <report>
        <duration-log.statistics value="true"/>
    </report>

    <traci_server>
        <remote-port value="62272"/>
    </traci_server>

    <gui_only>
        <gui-settings-file value="./SUMO_Input/Test4.settings.xml"/>
    </gui_only>

</configuration>
-->

<tripinfos xmlns:xsi="http://www.w3.org/2001/XMLSchema-instance" xsi:noNamespaceSchemaLocation="http://sumo.dlr.de/xsd/tripinfo_file.xsd">
</tripinfos>
id="0#0.0" depart="0.00" departLane="1_0" departPos="5.10" departSpeed="0.00" departDelay="0.00" arrival="-1.00" arrivalLane="" arrivalPos="-1.00" arrivalSpeed="-1.00" duration="109.00" routeLength="1183.54" waitingTime="0.00" waitingCount="0" stopTime="0.00" timeLoss="9.32" rerouteNo="0" devices="tripinfo_0#0.0 fcd_0#0.0" vType="DEFAULT_VEHTYPE" speedFactor="1.06" vaporized=""/>
    <tripinfo id="1#0.0" depart="0.00" departLane="4_0" departPos="5.10" departSpeed="0.00" departDelay="0.00" arrival="-1.00" arrivalLane="" arrivalPos="-1.00" arrivalSpeed="-1.00" duration="109.00" routeLength="1054.88" waitingTime="0.00" waitingCount="0" stopTime="0.00" timeLoss="9.04" rerouteNo="0" devices="tripinfo_1#0.0 fcd_1#0.0" vType="DEFAULT_VEHTYPE" speedFactor="0.94" vaporized="end"/>
    <tripinfo id="2#0.0" depart="0.00" departLane="5_0" departPos="5.10" departSpeed="0.00" departDelay="0.00" arrival="-1.00" arrivalLane="" arrivalPos="-1.00" arrivalSpeed="-1.00" duration="109.00" routeLength="1130.29" waitingTime="0.00" waitingCount="0" stopTime="0.00" timeLoss="9.53" rerouteNo="0" devices="tripinfo_2#0.0 fcd_2#0.0" vType="DEFAULT_VEHTYPE" speedFactor="1.01" vaporized="end"/>
    <tripinfo id="3#0.0" depart="0.00" departLane="8_0" departPos="5.10" departSpeed="0.00" departDelay="0.00" arrival="-1.00" arrivalLane="" arrivalPos="-1.00" arrivalSpeed="-1.00" duration="109.00" routeLength="1130.30" waitingTime="6.00" waitingCount="1" stopTime="0.00" timeLoss="16.10" rerouteNo="0" devices="tripinfo_3#0.0 fcd_3#0.0" vType="DEFAULT_VEHTYPE" speedFactor="1.08" vaporized="end"/>
    <tripinfo id="0#0.1" depart="36.00" departLane="1_0" departPos="5.10" departSpeed="0.00" departDelay="0.00" arrival="-1.00" arrivalLane="" arrivalPos="-1.00" arrivalSpeed="-1.00" duration="73.00" routeLength="771.11" waitingTime="0.00" waitingCount="0" stopTime="0.00" timeLoss="6.12" rerouteNo="0" devices="tripinfo_0#0.1 fcd_0#0.1" vType="DEFAULT_VEHTYPE" speedFactor="1.03" vaporized="end"/>
    <tripinfo id="1#0.1" depart="36.00" departLane="4_0" departPos="5.10" departSpeed="0.00" departDelay="0.00" arrival="-1.00" arrivalLane="" arrivalPos="-1.00" arrivalSpeed="-1.00" duration="73.00" routeLength="623.33" waitingTime="0.00" waitingCount="0" stopTime="0.00" timeLoss="5.97" rerouteNo="0" devices="tripinfo_1#0.1 fcd_1#0.1" vType="DEFAULT_VEHTYPE" speedFactor="0.83" vaporized="end"/>
    <tripinfo id="2#0.1" depart="36.00" departLane="5_0" departPos="5.10" departSpeed="0.00" departDelay="0.00" arrival="-1.00" arrivalLane="" arrivalPos="-1.00" arrivalSpeed="-1.00" duration="73.00" routeLength="783.21" waitingTime="0.00" waitingCount="0" stopTime="0.00" timeLoss="6.08" rerouteNo="0" devices="tripinfo_2#0.1 fcd_2#0.1" vType="DEFAULT_VEHTYPE" speedFactor="1.05" vaporized="end"/>
    <tripinfo id="3#0.1" depart="36.00" departLane="8_0" departPos="5.10" departSpeed="0.00" departDelay="0.00" arrival="-1.00" arrivalLane="" arrivalPos="-1.00" arrivalSpeed="-1.00" duration="73.00" routeLength="657.92" waitingTime="0.00" waitingCount="0" stopTime="0.00" timeLoss="6.63" rerouteNo="0" devices="tripinfo_3#0.1 fcd_3#0.1" vType="DEFAULT_VEHTYPE" speedFactor="0.89" vaporized="end"/>
    <tripinfo id="0#0.2" depart="72.00" departLane="1_0" departPos="5.10" departSpeed="0.00" departDelay="0.00" arrival="-1.00" arrivalLane="" arrivalPos="-1.00" arrivalSpeed="-1.00" duration="37.00" routeLength="341.06" waitingTime="0.00" waitingCount="0" stopTime="0.00" timeLoss="3.99" rerouteNo="0" devices="tripinfo_0#0.2 fcd_0#0.2" vType="DEFAULT_VEHTYPE" speedFactor="0.94" vaporized="end"/>
    <tripinfo id="1#0.2" depart="72.00" departLane="4_0" departPos="5.10" departSpeed="0.00" departDelay="0.00" arrival="-1.00" arrivalLane="" arrivalPos="-1.00" arrivalSpeed="-1.00" duration="37.00" routeLength="308.89" waitingTime="0.00" waitingCount="0" stopTime="0.00" timeLoss="4.27" rerouteNo="0" devices="tripinfo_1#0.2 fcd_1#0.2" vType="DEFAULT_VEHTYPE" speedFactor="0.86" vaporized="end"/>
    <tripinfo id="2#0.2" depart="72.00" departLane="5_0" departPos="5.10" departSpeed="0.00" departDelay="0.00" arrival="-1.00" arrivalLane="" arrivalPos="-1.00" arrivalSpeed="-1.00" duration="37.00" routeLength="385.25" waitingTime="0.00" waitingCount="0" stopTime="0.00" timeLoss="4.91" rerouteNo="0" devices="tripinfo_2#0.2 fcd_2#0.2" vType="DEFAULT_VEHTYPE" speedFactor="1.09" vaporized="end"/>
    <tripinfo id="3#0.2" depart="72.00" departLane="8_0" departPos="5.10" departSpeed="0.00" departDelay="0.00" arrival="-1.00" arrivalLane="" arrivalPos="-1.00" arrivalSpeed="-1.00" duration="37.00" routeLength="366.32" waitingTime="0.00" waitingCount="0" stopTime="0.00" timeLoss="4.58" rerouteNo="0" devices="tripinfo_3#0.2 fcd_3#0.2" vType="DEFAULT_VEHTYPE" speedFactor="1.03" vaporized="end"/>
    <tripinfo id="0#0.3" depart="108.00" departLane="1_0" departPos="5.10" departSpeed="0.00" departDelay="0.00" arrival="-1.00" arrivalLane="" arrivalPos="-1.00" arrivalSpeed="-1.00" duration="1.00" routeLength="0.00" waitingTime="0.00" waitingCount="0" stopTime="0.00" timeLoss="0.00" rerouteNo="0" devices="tripinfo_0#0.3 fcd_0#0.3" vType="DEFAULT_VEHTYPE" speedFactor="1.05" vaporized="end"/>
    <tripinfo id="1#0.3" depart="108.00" departLane="4_0" departPos="5.10" departSpeed="0.00" departDelay="0.00" arrival="-1.00" arrivalLane="" arrivalPos="-1.00" arrivalSpeed="-1.00" duration="1.00" routeLength="0.00" waitingTime="0.00" waitingCount="0" stopTime="0.00" timeLoss="0.00" rerouteNo="0" devices="tripinfo_1#0.3 fcd_1#0.3" vType="DEFAULT_VEHTYPE" speedFactor="1.12" vaporized="end"/>
    <tripinfo id="2#0.3" depart="108.00" departLane="5_0" departPos="5.10" departSpeed="0.00" departDelay="0.00" arrival="-1.00" arrivalLane="" arrivalPos="-1.00" arrivalSpeed="-1.00" duration="1.00" routeLength="0.00" waitingTime="0.00" waitingCount="0" stopTime="0.00" timeLoss="0.00" rerouteNo="0" devices="tripinfo_2#0.3 fcd_2#0.3" vType="DEFAULT_VEHTYPE" speedFactor="0.99" vaporized="end"/>
    <tripinfo id="3#0.3" depart="108.00" departLane="8_0" departPos="5.10" departSpeed="0.00" departDelay="0.00" arrival="-1.00" arrivalLane="" arrivalPos="-1.00" arrivalSpeed="-1.00" duration="1.00" routeLength="0.00" waitingTime="0.00" waitingCount="0" stopTime="0.00" timeLoss="0.00" rerouteNo="0" devices="tripinfo_3#0.3 fcd_3#0.3" vType="DEFAULT_VEHTYPE" speedFactor="0.93" vaporized="end"/>
</tripinfos>
